<?xml version="1.0" encoding="UTF-8"?>

<!-- generated on Mon Oct 16 12:10:41 2017 by SUMO Version 0.30.0
<?xml version="1.0" encoding="UTF-8"?>

<configuration xmlns:xsi="http://www.w3.org/2001/XMLSchema-instance" xsi:noNamespaceSchemaLocation="http://sumo.dlr.de/xsd/sumoConfiguration.xsd">

    <input>
        <net-file value="network/highway.net.xml"/>
        <route-files value="network/highway.rou.xml"/>
    </input>

    <output>
        <netstate-dump value="network/../log/sumo/netstate.dump"/>
        <tripinfo-output value="network/../log/sumo/tripinfo"/>
        <tripinfo-output.write-unfinished value="false"/>
    </output>

    <time>
        <begin value="0"/>
        <end value="840"/>
    </time>

    <emissions>
        <device.emissions.probability value="1"/>
    </emissions>

    <random_number>
        <seed value="15295"/>
    </random_number>

</configuration>
-->

<tripinfos xmlns:xsi="http://www.w3.org/2001/XMLSchema-instance" xsi:noNamespaceSchemaLocation="http://sumo.dlr.de/xsd/tripinfo_file.xsd">
    <tripinfo id="0.0" depart="0.00" departLane="gneE0_0" departPos="6.60" departSpeed="0.00" departDelay="0.00" arrival="319.00" arrivalLane="gneE0_0" arrivalPos="10000.00" arrivalSpeed="32.59" duration="319.00" routeLength="9993.40" waitSteps="0" timeLoss="15.53" rerouteNo="0" devices="tripinfo_0.0 emissions_0.0" vType="car2" speedFactor="1.00" vaporized="">
        <emissions CO_abs="26052.366943" CO2_abs="1341082.515526" HC_abs="435.214513" PMx_abs="129.229082" NOx_abs="2965.605146" fuel_abs="534.672323" electricity_abs="0"/>
    </tripinfo>
    <tripinfo id="1.0" depart="0.00" departLane="-gneE0_0" departPos="6.60" departSpeed="0.00" departDelay="0.00" arrival="320.00" arrivalLane="-gneE0_0" arrivalPos="10000.00" arrivalSpeed="32.80" duration="320.00" routeLength="9993.40" waitSteps="0" timeLoss="16.30" rerouteNo="0" devices="tripinfo_1.0 emissions_1.0" vType="car2" speedFactor="1.00" vaporized="">
        <emissions CO_abs="28458.206632" CO2_abs="1466780.511136" HC_abs="473.209516" PMx_abs="140.341793" NOx_abs="3240.207027" fuel_abs="584.786621" electricity_abs="0"/>
    </tripinfo>
    <tripinfo id="0.1" depart="4.00" departLane="gneE0_0" departPos="6.60" departSpeed="0.00" departDelay="2.80" arrival="323.00" arrivalLane="gneE0_0" arrivalPos="10000.00" arrivalSpeed="32.97" duration="319.00" routeLength="9993.40" waitSteps="0" timeLoss="15.88" rerouteNo="0" devices="tripinfo_0.1 emissions_0.1" vType="car2" speedFactor="1.00" vaporized="">
        <emissions CO_abs="27301.329700" CO2_abs="1405762.498704" HC_abs="454.953767" PMx_abs="134.830200" NOx_abs="3106.846900" fuel_abs="560.459463" electricity_abs="0"/>
    </tripinfo>
    <tripinfo id="1.2" depart="7.00" departLane="-gneE0_0" departPos="6.60" departSpeed="0.00" departDelay="4.60" arrival="327.00" arrivalLane="-gneE0_0" arrivalPos="10000.00" arrivalSpeed="32.79" duration="320.00" routeLength="9993.40" waitSteps="1" timeLoss="16.37" rerouteNo="0" devices="tripinfo_1.2 emissions_1.2" vType="car2" speedFactor="1.00" vaporized="">
        <emissions CO_abs="27630.976212" CO2_abs="1419459.877360" HC_abs="460.943689" PMx_abs="136.634062" NOx_abs="3139.506767" fuel_abs="565.920392" electricity_abs="0"/>
    </tripinfo>
    <tripinfo id="0.2" depart="8.00" departLane="gneE0_0" departPos="6.60" departSpeed="0.00" departDelay="5.60" arrival="328.00" arrivalLane="gneE0_0" arrivalPos="10000.00" arrivalSpeed="32.42" duration="320.00" routeLength="9993.40" waitSteps="0" timeLoss="16.24" rerouteNo="0" devices="tripinfo_0.2 emissions_0.2" vType="car2" speedFactor="1.00" vaporized="">
        <emissions CO_abs="28286.940056" CO2_abs="1455802.074437" HC_abs="470.878508" PMx_abs="139.211242" NOx_abs="3216.561508" fuel_abs="580.409629" electricity_abs="0"/>
    </tripinfo>
    <tripinfo id="1.3" depart="12.00" departLane="-gneE0_0" departPos="6.60" departSpeed="0.00" departDelay="8.40" arrival="330.00" arrivalLane="-gneE0_0" arrivalPos="10000.00" arrivalSpeed="32.60" duration="318.00" routeLength="9993.40" waitSteps="0" timeLoss="14.99" rerouteNo="0" devices="tripinfo_1.3 emissions_1.3" vType="car2" speedFactor="1.00" vaporized="">
        <emissions CO_abs="27097.129458" CO2_abs="1390115.474863" HC_abs="451.181740" PMx_abs="134.436012" NOx_abs="3077.133044" fuel_abs="554.221171" electricity_abs="0"/>
    </tripinfo>
    <tripinfo id="0.4" depart="15.00" departLane="gneE0_0" departPos="6.60" departSpeed="0.00" departDelay="10.20" arrival="335.00" arrivalLane="gneE0_0" arrivalPos="10000.00" arrivalSpeed="32.28" duration="320.00" routeLength="9993.40" waitSteps="0" timeLoss="16.28" rerouteNo="0" devices="tripinfo_0.4 emissions_0.4" vType="car2" speedFactor="1.00" vaporized="">
        <emissions CO_abs="25974.212013" CO2_abs="1338299.114225" HC_abs="432.894193" PMx_abs="128.571721" NOx_abs="2957.702573" fuel_abs="533.562682" electricity_abs="0"/>
    </tripinfo>
    <tripinfo id="1.4" depart="16.00" departLane="-gneE0_0" departPos="6.60" departSpeed="0.00" departDelay="11.20" arrival="335.00" arrivalLane="-gneE0_0" arrivalPos="10000.00" arrivalSpeed="32.66" duration="319.00" routeLength="9993.40" waitSteps="0" timeLoss="15.58" rerouteNo="0" devices="tripinfo_1.4 emissions_1.4" vType="car2" speedFactor="1.00" vaporized="">
        <emissions CO_abs="27529.372395" CO2_abs="1418619.798989" HC_abs="457.907185" PMx_abs="136.189463" NOx_abs="3135.280414" fuel_abs="565.585543" electricity_abs="0"/>
    </tripinfo>
    <tripinfo id="1.5" depart="19.00" departLane="-gneE0_0" departPos="6.60" departSpeed="0.00" departDelay="13.00" arrival="339.00" arrivalLane="-gneE0_0" arrivalPos="10000.00" arrivalSpeed="32.25" duration="320.00" routeLength="9993.40" waitSteps="0" timeLoss="16.57" rerouteNo="0" devices="tripinfo_1.5 emissions_1.5" vType="car2" speedFactor="1.00" vaporized="">
        <emissions CO_abs="26373.749330" CO2_abs="1361817.793415" HC_abs="439.704090" PMx_abs="130.149069" NOx_abs="3006.858893" fuel_abs="542.939294" electricity_abs="0"/>
    </tripinfo>
    <tripinfo id="0.6" depart="23.00" departLane="gneE0_0" departPos="6.60" departSpeed="0.00" departDelay="15.80" arrival="341.00" arrivalLane="gneE0_0" arrivalPos="10000.00" arrivalSpeed="32.22" duration="318.00" routeLength="9993.40" waitSteps="0" timeLoss="14.96" rerouteNo="0" devices="tripinfo_0.6 emissions_0.6" vType="car2" speedFactor="1.00" vaporized="">
        <emissions CO_abs="27169.951657" CO2_abs="1394351.516337" HC_abs="452.613171" PMx_abs="134.863504" NOx_abs="3086.509587" fuel_abs="555.910016" electricity_abs="0"/>
    </tripinfo>
    <tripinfo id="1.6" depart="24.00" departLane="-gneE0_0" departPos="6.60" departSpeed="0.00" departDelay="16.80" arrival="343.00" arrivalLane="-gneE0_0" arrivalPos="10000.00" arrivalSpeed="32.18" duration="319.00" routeLength="9993.40" waitSteps="0" timeLoss="15.93" rerouteNo="0" devices="tripinfo_1.6 emissions_1.6" vType="car2" speedFactor="1.00" vaporized="">
        <emissions CO_abs="27367.361044" CO2_abs="1410157.417230" HC_abs="455.502667" PMx_abs="135.337632" NOx_abs="3116.359900" fuel_abs="562.211690" electricity_abs="0"/>
    </tripinfo>
    <tripinfo id="0.7" depart="27.00" departLane="gneE0_0" departPos="6.60" departSpeed="0.00" departDelay="18.60" arrival="347.00" arrivalLane="gneE0_0" arrivalPos="10000.00" arrivalSpeed="32.28" duration="320.00" routeLength="9993.40" waitSteps="0" timeLoss="16.15" rerouteNo="0" devices="tripinfo_0.7 emissions_0.7" vType="car2" speedFactor="1.00" vaporized="">
        <emissions CO_abs="27420.817365" CO2_abs="1409144.671906" HC_abs="457.122121" PMx_abs="136.377950" NOx_abs="3118.405771" fuel_abs="561.807854" electricity_abs="0"/>
    </tripinfo>
    <tripinfo id="0.8" depart="31.00" departLane="gneE0_0" departPos="6.60" departSpeed="0.00" departDelay="21.40" arrival="350.00" arrivalLane="gneE0_0" arrivalPos="10000.00" arrivalSpeed="32.77" duration="319.00" routeLength="9993.40" waitSteps="0" timeLoss="15.40" rerouteNo="0" devices="tripinfo_0.8 emissions_0.8" vType="car2" speedFactor="1.00" vaporized="">
        <emissions CO_abs="25706.225871" CO2_abs="1322639.806488" HC_abs="430.164794" PMx_abs="127.731338" NOx_abs="2925.860139" fuel_abs="527.319411" electricity_abs="0"/>
    </tripinfo>
    <tripinfo id="1.1" depart="4.00" departLane="-gneE0_0" departPos="6.60" departSpeed="0.00" departDelay="2.80" arrival="352.00" arrivalLane="-gneE0_0" arrivalPos="10000.00" arrivalSpeed="29.66" duration="348.00" routeLength="9993.40" waitSteps="0" timeLoss="14.52" rerouteNo="0" devices="tripinfo_1.1 emissions_1.1" vType="car1" speedFactor="1.00" vaporized="">
        <emissions CO_abs="21558.438727" CO2_abs="1252316.770360" HC_abs="382.068240" PMx_abs="117.826247" NOx_abs="2710.758257" fuel_abs="499.282184" electricity_abs="0"/>
    </tripinfo>
    <tripinfo id="1.8" depart="33.00" departLane="-gneE0_0" departPos="6.60" departSpeed="0.00" departDelay="23.40" arrival="355.00" arrivalLane="-gneE0_0" arrivalPos="10000.00" arrivalSpeed="32.45" duration="322.00" routeLength="9993.40" waitSteps="0" timeLoss="18.10" rerouteNo="0" devices="tripinfo_1.8 emissions_1.8" vType="car2" speedFactor="1.00" vaporized="">
        <emissions CO_abs="27341.533878" CO2_abs="1416622.800848" HC_abs="456.228345" PMx_abs="134.931113" NOx_abs="3124.569022" fuel_abs="564.789361" electricity_abs="0"/>
    </tripinfo>
    <tripinfo id="1.9" depart="37.00" departLane="-gneE0_0" departPos="6.60" departSpeed="0.00" departDelay="26.20" arrival="357.00" arrivalLane="-gneE0_0" arrivalPos="10000.00" arrivalSpeed="32.30" duration="320.00" routeLength="9993.40" waitSteps="0" timeLoss="16.47" rerouteNo="0" devices="tripinfo_1.9 emissions_1.9" vType="car2" speedFactor="1.00" vaporized="">
        <emissions CO_abs="27074.841957" CO2_abs="1398040.282842" HC_abs="450.752151" PMx_abs="133.517531" NOx_abs="3086.761729" fuel_abs="557.380763" electricity_abs="0"/>
    </tripinfo>
    <tripinfo id="0.10" depart="38.00" departLane="gneE0_0" departPos="6.60" departSpeed="0.00" departDelay="26.00" arrival="358.00" arrivalLane="gneE0_0" arrivalPos="10000.00" arrivalSpeed="32.23" duration="320.00" routeLength="9993.40" waitSteps="0" timeLoss="16.88" rerouteNo="0" devices="tripinfo_0.10 emissions_0.10" vType="car2" speedFactor="1.00" vaporized="">
        <emissions CO_abs="27506.839186" CO2_abs="1417548.570986" HC_abs="460.205621" PMx_abs="136.727476" NOx_abs="3134.392733" fuel_abs="565.158329" electricity_abs="0"/>
    </tripinfo>
    <tripinfo id="0.3" depart="12.00" departLane="gneE0_0" departPos="6.60" departSpeed="0.00" departDelay="8.40" arrival="360.00" arrivalLane="gneE0_0" arrivalPos="10000.00" arrivalSpeed="29.98" duration="348.00" routeLength="9993.40" waitSteps="0" timeLoss="14.52" rerouteNo="0" devices="tripinfo_0.3 emissions_0.3" vType="car1" speedFactor="1.00" vaporized="">
        <emissions CO_abs="21378.781403" CO2_abs="1247581.793669" HC_abs="378.641426" PMx_abs="116.840272" NOx_abs="2697.300544" fuel_abs="497.394455" electricity_abs="0"/>
    </tripinfo>
    <tripinfo id="0.11" depart="42.00" departLane="gneE0_0" departPos="6.60" departSpeed="0.00" departDelay="28.80" arrival="361.00" arrivalLane="gneE0_1" arrivalPos="10000.00" arrivalSpeed="32.86" duration="319.00" routeLength="9993.40" waitSteps="0" timeLoss="15.80" rerouteNo="0" devices="tripinfo_0.11 emissions_0.11" vType="car2" speedFactor="1.00" vaporized="">
        <emissions CO_abs="27175.298408" CO2_abs="1394393.739323" HC_abs="453.438359" PMx_abs="135.563494" NOx_abs="3088.343844" fuel_abs="555.926806" electricity_abs="0"/>
    </tripinfo>
    <tripinfo id="1.10" depart="41.00" departLane="-gneE0_0" departPos="6.60" departSpeed="0.00" departDelay="29.00" arrival="361.00" arrivalLane="-gneE0_0" arrivalPos="10000.00" arrivalSpeed="32.28" duration="320.00" routeLength="9993.40" waitSteps="0" timeLoss="16.49" rerouteNo="0" devices="tripinfo_1.10 emissions_1.10" vType="car2" speedFactor="1.00" vaporized="">
        <emissions CO_abs="28292.358774" CO2_abs="1456213.999619" HC_abs="472.388811" PMx_abs="140.445478" NOx_abs="3220.660321" fuel_abs="580.573770" electricity_abs="0"/>
    </tripinfo>
    <tripinfo id="1.11" depart="45.00" departLane="-gneE0_0" departPos="6.60" departSpeed="0.00" departDelay="31.80" arrival="364.00" arrivalLane="-gneE0_0" arrivalPos="10000.00" arrivalSpeed="32.83" duration="319.00" routeLength="9993.40" waitSteps="0" timeLoss="15.98" rerouteNo="0" devices="tripinfo_1.11 emissions_1.11" vType="car2" speedFactor="1.00" vaporized="">
        <emissions CO_abs="27148.889795" CO2_abs="1396464.128658" HC_abs="453.170705" PMx_abs="134.439466" NOx_abs="3088.147171" fuel_abs="556.752274" electricity_abs="0"/>
    </tripinfo>
    <tripinfo id="0.12" depart="46.00" departLane="gneE0_0" departPos="6.60" departSpeed="0.00" departDelay="31.60" arrival="365.00" arrivalLane="gneE0_0" arrivalPos="10000.00" arrivalSpeed="32.17" duration="319.00" routeLength="9993.40" waitSteps="0" timeLoss="15.41" rerouteNo="0" devices="tripinfo_0.12 emissions_0.12" vType="car2" speedFactor="1.00" vaporized="">
        <emissions CO_abs="26285.545482" CO2_abs="1351691.533557" HC_abs="437.668575" PMx_abs="130.979385" NOx_abs="2991.425063" fuel_abs="538.902051" electricity_abs="0"/>
    </tripinfo>
    <tripinfo id="0.5" depart="19.00" departLane="gneE0_0" departPos="6.60" departSpeed="0.00" departDelay="13.00" arrival="368.00" arrivalLane="gneE0_0" arrivalPos="10000.00" arrivalSpeed="29.73" duration="349.00" routeLength="9993.40" waitSteps="0" timeLoss="14.91" rerouteNo="0" devices="tripinfo_0.5 emissions_0.5" vType="car1" speedFactor="1.00" vaporized="">
        <emissions CO_abs="23136.981554" CO2_abs="1358079.037847" HC_abs="409.150852" PMx_abs="125.840069" NOx_abs="2930.203307" fuel_abs="541.448340" electricity_abs="0"/>
    </tripinfo>
    <tripinfo id="0.13" depart="49.00" departLane="gneE0_0" departPos="6.60" departSpeed="0.00" departDelay="33.40" arrival="369.00" arrivalLane="gneE0_0" arrivalPos="10000.00" arrivalSpeed="32.97" duration="320.00" routeLength="9993.40" waitSteps="0" timeLoss="17.00" rerouteNo="0" devices="tripinfo_0.13 emissions_0.13" vType="car2" speedFactor="1.00" vaporized="">
        <emissions CO_abs="26593.024139" CO2_abs="1369429.211287" HC_abs="444.192733" PMx_abs="132.389762" NOx_abs="3028.867625" fuel_abs="545.973792" electricity_abs="0"/>
    </tripinfo>
    <tripinfo id="1.12" depart="49.00" departLane="-gneE0_0" departPos="6.60" departSpeed="0.00" departDelay="34.60" arrival="369.00" arrivalLane="-gneE0_0" arrivalPos="10000.00" arrivalSpeed="32.80" duration="320.00" routeLength="9993.40" waitSteps="0" timeLoss="16.16" rerouteNo="0" devices="tripinfo_1.12 emissions_1.12" vType="car2" speedFactor="1.00" vaporized="">
        <emissions CO_abs="26462.903680" CO2_abs="1363499.742747" HC_abs="441.676864" PMx_abs="131.507993" NOx_abs="3014.994651" fuel_abs="543.609805" electricity_abs="0"/>
    </tripinfo>
    <tripinfo id="0.14" depart="54.00" departLane="gneE0_0" departPos="6.60" departSpeed="0.00" departDelay="37.20" arrival="373.00" arrivalLane="gneE0_0" arrivalPos="10000.00" arrivalSpeed="32.59" duration="319.00" routeLength="9993.40" waitSteps="0" timeLoss="15.56" rerouteNo="0" devices="tripinfo_0.14 emissions_0.14" vType="car2" speedFactor="1.00" vaporized="">
        <emissions CO_abs="27347.391068" CO2_abs="1405268.113381" HC_abs="455.977403" PMx_abs="135.457012" NOx_abs="3108.612415" fuel_abs="560.262323" electricity_abs="0"/>
    </tripinfo>
    <tripinfo id="1.14" depart="57.00" departLane="-gneE0_0" departPos="6.60" departSpeed="0.00" departDelay="40.20" arrival="377.00" arrivalLane="-gneE0_0" arrivalPos="10000.00" arrivalSpeed="32.31" duration="320.00" routeLength="9993.40" waitSteps="0" timeLoss="16.55" rerouteNo="0" devices="tripinfo_1.14 emissions_1.14" vType="car2" speedFactor="1.00" vaporized="">
        <emissions CO_abs="27077.123620" CO2_abs="1397418.084713" HC_abs="452.597273" PMx_abs="133.761026" NOx_abs="3086.559722" fuel_abs="557.132606" electricity_abs="0"/>
    </tripinfo>
    <tripinfo id="0.15" depart="58.00" departLane="gneE0_0" departPos="6.60" departSpeed="0.00" departDelay="40.00" arrival="378.00" arrivalLane="gneE0_0" arrivalPos="10000.00" arrivalSpeed="32.11" duration="320.00" routeLength="9993.40" waitSteps="0" timeLoss="16.45" rerouteNo="0" devices="tripinfo_0.15 emissions_0.15" vType="car2" speedFactor="1.00" vaporized="">
        <emissions CO_abs="27452.678380" CO2_abs="1412719.026612" HC_abs="456.393069" PMx_abs="136.463235" NOx_abs="3124.751879" fuel_abs="563.232977" electricity_abs="0"/>
    </tripinfo>
    <tripinfo id="0.16" depart="62.00" departLane="gneE0_0" departPos="6.60" departSpeed="0.00" departDelay="42.80" arrival="382.00" arrivalLane="gneE0_0" arrivalPos="10000.00" arrivalSpeed="32.30" duration="320.00" routeLength="9993.40" waitSteps="0" timeLoss="16.33" rerouteNo="0" devices="tripinfo_0.16 emissions_0.16" vType="car2" speedFactor="1.00" vaporized="">
        <emissions CO_abs="26621.283132" CO2_abs="1373527.221469" HC_abs="444.518039" PMx_abs="131.727810" NOx_abs="3034.497415" fuel_abs="547.607644" electricity_abs="0"/>
    </tripinfo>
    <tripinfo id="0.9" depart="34.00" departLane="gneE0_0" departPos="6.60" departSpeed="0.00" departDelay="23.20" arrival="383.00" arrivalLane="gneE0_0" arrivalPos="10000.00" arrivalSpeed="29.17" duration="349.00" routeLength="9993.40" waitSteps="0" timeLoss="15.42" rerouteNo="0" devices="tripinfo_0.9 emissions_0.9" vType="car1" speedFactor="1.00" vaporized="">
        <emissions CO_abs="22244.016352" CO2_abs="1297718.890751" HC_abs="393.978368" PMx_abs="121.375433" NOx_abs="2805.116802" fuel_abs="517.383464" electricity_abs="0"/>
    </tripinfo>
    <tripinfo id="1.16" depart="66.00" departLane="-gneE0_0" departPos="6.60" departSpeed="0.00" departDelay="46.80" arrival="388.00" arrivalLane="-gneE0_0" arrivalPos="10000.00" arrivalSpeed="32.98" duration="322.00" routeLength="9993.40" waitSteps="0" timeLoss="18.29" rerouteNo="0" devices="tripinfo_1.16 emissions_1.16" vType="car2" speedFactor="1.00" vaporized="">
        <emissions CO_abs="26978.361532" CO2_abs="1394931.224144" HC_abs="450.921287" PMx_abs="134.046721" NOx_abs="3080.712206" fuel_abs="556.141143" electricity_abs="0"/>
    </tripinfo>
    <tripinfo id="1.17" depart="70.00" departLane="-gneE0_0" departPos="6.60" departSpeed="0.00" departDelay="49.60" arrival="391.00" arrivalLane="-gneE0_0" arrivalPos="10000.00" arrivalSpeed="32.18" duration="321.00" routeLength="9993.40" waitSteps="0" timeLoss="17.42" rerouteNo="0" devices="tripinfo_1.17 emissions_1.17" vType="car2" speedFactor="1.00" vaporized="">
        <emissions CO_abs="25819.629223" CO2_abs="1335361.116258" HC_abs="431.961469" PMx_abs="128.339681" NOx_abs="2949.463285" fuel_abs="532.391284" electricity_abs="0"/>
    </tripinfo>
    <tripinfo id="1.18" depart="74.00" departLane="-gneE0_0" departPos="6.60" departSpeed="0.00" departDelay="52.40" arrival="395.00" arrivalLane="-gneE0_0" arrivalPos="10000.00" arrivalSpeed="32.82" duration="321.00" routeLength="9993.40" waitSteps="0" timeLoss="17.29" rerouteNo="0" devices="tripinfo_1.18 emissions_1.18" vType="car2" speedFactor="1.00" vaporized="">
        <emissions CO_abs="27979.571342" CO2_abs="1443074.225718" HC_abs="466.862495" PMx_abs="138.577142" NOx_abs="3188.768585" fuel_abs="575.335152" electricity_abs="0"/>
    </tripinfo>
    <tripinfo id="0.20" depart="79.00" departLane="gneE0_0" departPos="6.60" departSpeed="0.00" departDelay="55.00" arrival="401.00" arrivalLane="gneE0_0" arrivalPos="10000.00" arrivalSpeed="32.19" duration="322.00" routeLength="9993.40" waitSteps="0" timeLoss="18.43" rerouteNo="0" devices="tripinfo_0.20 emissions_0.20" vType="car2" speedFactor="1.00" vaporized="">
        <emissions CO_abs="25870.172279" CO2_abs="1342941.994421" HC_abs="433.481818" PMx_abs="128.520141" NOx_abs="2962.621329" fuel_abs="535.413687" electricity_abs="0"/>
    </tripinfo>
    <tripinfo id="1.20" depart="83.00" departLane="-gneE0_0" departPos="6.60" departSpeed="0.00" departDelay="59.00" arrival="403.00" arrivalLane="-gneE0_1" arrivalPos="10000.00" arrivalSpeed="32.46" duration="320.00" routeLength="9993.40" waitSteps="0" timeLoss="16.80" rerouteNo="0" devices="tripinfo_1.20 emissions_1.20" vType="car2" speedFactor="1.00" vaporized="">
        <emissions CO_abs="26510.150929" CO2_abs="1360728.342161" HC_abs="444.238927" PMx_abs="133.077814" NOx_abs="3015.595015" fuel_abs="542.504749" electricity_abs="0"/>
    </tripinfo>
    <tripinfo id="1.13" depart="53.00" departLane="-gneE0_0" departPos="6.60" departSpeed="0.00" departDelay="37.40" arrival="403.00" arrivalLane="-gneE0_0" arrivalPos="10000.00" arrivalSpeed="29.47" duration="350.00" routeLength="9993.40" waitSteps="0" timeLoss="16.35" rerouteNo="0" devices="tripinfo_1.13 emissions_1.13" vType="car1" speedFactor="1.00" vaporized="">
        <emissions CO_abs="22579.926933" CO2_abs="1322112.708829" HC_abs="400.315360" PMx_abs="123.571641" NOx_abs="2855.952949" fuel_abs="527.108965" electricity_abs="0"/>
    </tripinfo>
    <tripinfo id="1.21" depart="87.00" departLane="-gneE0_0" departPos="6.60" departSpeed="0.00" departDelay="61.80" arrival="407.00" arrivalLane="-gneE0_0" arrivalPos="10000.00" arrivalSpeed="32.77" duration="320.00" routeLength="9993.40" waitSteps="0" timeLoss="16.97" rerouteNo="0" devices="tripinfo_1.21 emissions_1.21" vType="car2" speedFactor="1.00" vaporized="">
        <emissions CO_abs="26695.895253" CO2_abs="1376623.975768" HC_abs="446.315289" PMx_abs="133.083343" NOx_abs="3044.348549" fuel_abs="548.842235" electricity_abs="0"/>
    </tripinfo>
    <tripinfo id="0.22" depart="88.00" departLane="gneE0_0" departPos="6.60" departSpeed="0.00" departDelay="61.60" arrival="408.00" arrivalLane="gneE0_0" arrivalPos="10000.00" arrivalSpeed="32.55" duration="320.00" routeLength="9993.40" waitSteps="0" timeLoss="16.94" rerouteNo="0" devices="tripinfo_0.22 emissions_0.22" vType="car2" speedFactor="1.00" vaporized="">
        <emissions CO_abs="26937.959721" CO2_abs="1387855.528940" HC_abs="450.253797" PMx_abs="133.268954" NOx_abs="3067.309773" fuel_abs="553.320124" electricity_abs="0"/>
    </tripinfo>
    <tripinfo id="0.23" depart="91.00" departLane="gneE0_0" departPos="6.60" departSpeed="0.00" departDelay="63.40" arrival="411.00" arrivalLane="gneE0_0" arrivalPos="10000.00" arrivalSpeed="32.17" duration="320.00" routeLength="9993.40" waitSteps="0" timeLoss="17.00" rerouteNo="0" devices="tripinfo_0.23 emissions_0.23" vType="car2" speedFactor="1.00" vaporized="">
        <emissions CO_abs="27404.086225" CO2_abs="1411706.151968" HC_abs="456.374709" PMx_abs="135.614459" NOx_abs="3120.198373" fuel_abs="562.829138" electricity_abs="0"/>
    </tripinfo>
    <tripinfo id="1.22" depart="91.00" departLane="-gneE0_0" departPos="6.60" departSpeed="0.00" departDelay="64.60" arrival="411.00" arrivalLane="-gneE0_0" arrivalPos="10000.00" arrivalSpeed="32.42" duration="320.00" routeLength="9993.40" waitSteps="0" timeLoss="16.51" rerouteNo="0" devices="tripinfo_1.22 emissions_1.22" vType="car2" speedFactor="1.00" vaporized="">
        <emissions CO_abs="27608.635918" CO2_abs="1418510.546739" HC_abs="461.833918" PMx_abs="137.685455" NOx_abs="3140.425884" fuel_abs="565.541826" electricity_abs="0"/>
    </tripinfo>
    <tripinfo id="0.24" depart="95.00" departLane="gneE0_0" departPos="6.60" departSpeed="0.00" departDelay="66.20" arrival="415.00" arrivalLane="gneE0_1" arrivalPos="10000.00" arrivalSpeed="32.41" duration="320.00" routeLength="9993.40" waitSteps="0" timeLoss="16.92" rerouteNo="0" devices="tripinfo_0.24 emissions_0.24" vType="car2" speedFactor="1.00" vaporized="">
        <emissions CO_abs="27844.366843" CO2_abs="1435467.542125" HC_abs="465.021212" PMx_abs="137.620945" NOx_abs="3171.657913" fuel_abs="572.302446" electricity_abs="0"/>
    </tripinfo>
    <tripinfo id="0.17" depart="66.00" departLane="gneE0_0" departPos="6.60" departSpeed="0.00" departDelay="45.60" arrival="415.00" arrivalLane="gneE0_0" arrivalPos="10000.00" arrivalSpeed="29.28" duration="349.00" routeLength="9993.40" waitSteps="0" timeLoss="15.18" rerouteNo="0" devices="tripinfo_0.17 emissions_0.17" vType="car1" speedFactor="1.00" vaporized="">
        <emissions CO_abs="22171.289375" CO2_abs="1292880.108354" HC_abs="392.971795" PMx_abs="121.140454" NOx_abs="2795.556395" fuel_abs="515.454282" electricity_abs="0"/>
    </tripinfo>
    <tripinfo id="1.23" depart="95.00" departLane="-gneE0_0" departPos="6.60" departSpeed="0.00" departDelay="67.40" arrival="415.00" arrivalLane="-gneE0_0" arrivalPos="10000.00" arrivalSpeed="32.19" duration="320.00" routeLength="9993.40" waitSteps="0" timeLoss="16.14" rerouteNo="0" devices="tripinfo_1.23 emissions_1.23" vType="car2" speedFactor="1.00" vaporized="">
        <emissions CO_abs="28336.391750" CO2_abs="1454198.088481" HC_abs="471.816993" PMx_abs="141.159768" NOx_abs="3220.094092" fuel_abs="579.770080" electricity_abs="0"/>
    </tripinfo>
    <tripinfo id="0.18" depart="70.00" departLane="gneE0_0" departPos="6.60" departSpeed="0.00" departDelay="48.40" arrival="419.00" arrivalLane="gneE0_0" arrivalPos="10000.00" arrivalSpeed="29.44" duration="349.00" routeLength="9993.40" waitSteps="0" timeLoss="14.91" rerouteNo="0" devices="tripinfo_0.18 emissions_0.18" vType="car1" speedFactor="1.00" vaporized="">
        <emissions CO_abs="22100.090453" CO2_abs="1292607.569484" HC_abs="391.332508" PMx_abs="120.763755" NOx_abs="2792.839167" fuel_abs="515.345663" electricity_abs="0"/>
    </tripinfo>
    <tripinfo id="0.25" depart="99.00" departLane="gneE0_0" departPos="6.60" departSpeed="0.00" departDelay="69.00" arrival="420.00" arrivalLane="gneE0_1" arrivalPos="10000.00" arrivalSpeed="32.97" duration="321.00" routeLength="9993.40" waitSteps="0" timeLoss="17.14" rerouteNo="0" devices="tripinfo_0.25 emissions_0.25" vType="car2" speedFactor="1.00" vaporized="">
        <emissions CO_abs="26831.731078" CO2_abs="1386753.153790" HC_abs="447.645369" PMx_abs="133.186119" NOx_abs="3063.050317" fuel_abs="552.880682" electricity_abs="0"/>
    </tripinfo>
    <tripinfo id="1.25" depart="103.00" departLane="-gneE0_0" departPos="6.60" departSpeed="0.00" departDelay="73.00" arrival="422.00" arrivalLane="-gneE0_0" arrivalPos="10000.00" arrivalSpeed="32.48" duration="319.00" routeLength="9993.40" waitSteps="0" timeLoss="15.30" rerouteNo="0" devices="tripinfo_1.25 emissions_1.25" vType="car2" speedFactor="1.00" vaporized="">
        <emissions CO_abs="27323.705015" CO2_abs="1403196.967388" HC_abs="456.390476" PMx_abs="136.109013" NOx_abs="3106.846871" fuel_abs="559.436523" electricity_abs="0"/>
    </tripinfo>
    <tripinfo id="0.26" depart="103.00" departLane="gneE0_0" departPos="6.60" departSpeed="0.00" departDelay="71.80" arrival="423.00" arrivalLane="gneE0_0" arrivalPos="10000.00" arrivalSpeed="32.98" duration="320.00" routeLength="9993.40" waitSteps="0" timeLoss="16.60" rerouteNo="0" devices="tripinfo_0.26 emissions_0.26" vType="car2" speedFactor="1.00" vaporized="">
        <emissions CO_abs="26419.384445" CO2_abs="1361353.002828" HC_abs="440.809625" PMx_abs="131.160509" NOx_abs="3009.545251" fuel_abs="542.753943" electricity_abs="0"/>
    </tripinfo>
    <tripinfo id="0.27" depart="107.00" departLane="gneE0_0" departPos="6.60" departSpeed="0.00" departDelay="74.60" arrival="427.00" arrivalLane="gneE0_0" arrivalPos="10000.00" arrivalSpeed="32.30" duration="320.00" routeLength="9993.40" waitSteps="0" timeLoss="16.29" rerouteNo="0" devices="tripinfo_0.27 emissions_0.27" vType="car2" speedFactor="1.00" vaporized="">
        <emissions CO_abs="27745.326495" CO2_abs="1427156.638400" HC_abs="461.889777" PMx_abs="137.525014" NOx_abs="3156.253463" fuel_abs="568.989039" electricity_abs="0"/>
    </tripinfo>
    <tripinfo id="1.27" depart="111.00" departLane="-gneE0_0" departPos="6.60" departSpeed="0.00" departDelay="78.60" arrival="430.00" arrivalLane="-gneE0_0" arrivalPos="10000.00" arrivalSpeed="32.77" duration="319.00" routeLength="9993.40" waitSteps="0" timeLoss="15.53" rerouteNo="0" devices="tripinfo_1.27 emissions_1.27" vType="car2" speedFactor="1.00" vaporized="">
        <emissions CO_abs="26907.868738" CO2_abs="1383490.897312" HC_abs="449.395314" PMx_abs="133.708532" NOx_abs="3061.192553" fuel_abs="551.579987" electricity_abs="0"/>
    </tripinfo>
    <tripinfo id="0.28" depart="111.00" departLane="gneE0_0" departPos="6.60" departSpeed="0.00" departDelay="77.40" arrival="431.00" arrivalLane="gneE0_0" arrivalPos="10000.00" arrivalSpeed="32.57" duration="320.00" routeLength="9993.40" waitSteps="0" timeLoss="16.25" rerouteNo="0" devices="tripinfo_0.28 emissions_0.28" vType="car2" speedFactor="1.00" vaporized="">
        <emissions CO_abs="26652.744417" CO2_abs="1373516.022659" HC_abs="445.209700" PMx_abs="132.001295" NOx_abs="3035.797307" fuel_abs="547.603161" electricity_abs="0"/>
    </tripinfo>
    <tripinfo id="1.28" depart="115.00" departLane="-gneE0_0" departPos="6.60" departSpeed="0.00" departDelay="81.40" arrival="434.00" arrivalLane="-gneE0_0" arrivalPos="10000.00" arrivalSpeed="32.85" duration="319.00" routeLength="9993.40" waitSteps="0" timeLoss="15.73" rerouteNo="0" devices="tripinfo_1.28 emissions_1.28" vType="car2" speedFactor="1.00" vaporized="">
        <emissions CO_abs="27690.972548" CO2_abs="1423083.130367" HC_abs="461.125379" PMx_abs="137.557123" NOx_abs="3148.988344" fuel_abs="567.364961" electricity_abs="0"/>
    </tripinfo>
    <tripinfo id="0.29" depart="115.00" departLane="gneE0_0" departPos="6.60" departSpeed="0.00" departDelay="80.20" arrival="436.00" arrivalLane="gneE0_0" arrivalPos="10000.00" arrivalSpeed="32.91" duration="321.00" routeLength="9993.40" waitSteps="0" timeLoss="17.26" rerouteNo="0" devices="tripinfo_0.29 emissions_0.29" vType="car2" speedFactor="1.00" vaporized="">
        <emissions CO_abs="28197.795953" CO2_abs="1451451.497416" HC_abs="470.813154" PMx_abs="139.249000" NOx_abs="3207.776844" fuel_abs="578.675043" electricity_abs="0"/>
    </tripinfo>