<?xml version="1.0" encoding="UTF-8"?>

<!-- generated on Wed Oct 11 07:15:58 2017 by SUMO Version 0.30.0
<?xml version="1.0" encoding="UTF-8"?>

<configuration xmlns:xsi="http://www.w3.org/2001/XMLSchema-instance" xsi:noNamespaceSchemaLocation="http://sumo.dlr.de/xsd/sumoConfiguration.xsd">

    <input>
        <net-file value="./network/highway.net.xml"/>
        <route-files value="./network/highway.rou.xml"/>
    </input>

    <output>
        <netstate-dump value="./network/../log/sumo/netstate.dump"/>
        <tripinfo-output value="./network/../log/sumo/tripinfo"/>
        <tripinfo-output.write-unfinished value="false"/>
    </output>

    <time>
        <begin value="0"/>
        <end value="840"/>
    </time>

    <emissions>
        <device.emissions.probability value="1"/>
    </emissions>

    <traci_server>
        <remote-port value="5500"/>
    </traci_server>

    <random_number>
        <seed value="14884"/>
    </random_number>

</configuration>
-->

<tripinfos xmlns:xsi="http://www.w3.org/2001/XMLSchema-instance" xsi:noNamespaceSchemaLocation="http://sumo.dlr.de/xsd/tripinfo_file.xsd">
    <tripinfo id="1.0" depart="0.00" departLane="-gneE0_0" departPos="6.60" departSpeed="0.00" departDelay="0.00" arrival="319.00" arrivalLane="-gneE0_0" arrivalPos="10000.00" arrivalSpeed="32.92" duration="319.00" routeLength="9993.40" waitSteps="0" timeLoss="15.69" rerouteNo="0" devices="tripinfo_1.0 emissions_1.0" vType="car2" speedFactor="1.00" vaporized="">
        <emissions CO_abs="28624.910698" CO2_abs="1470867.343357" HC_abs="475.521306" PMx_abs="141.019646" NOx_abs="3251.763112" fuel_abs="586.415985" electricity_abs="0"/>
    </tripinfo>
    <tripinfo id="0.0" depart="0.00" departLane="gneE0_0" departPos="6.60" departSpeed="0.00" departDelay="0.00" arrival="320.00" arrivalLane="gneE0_0" arrivalPos="10000.00" arrivalSpeed="32.70" duration="320.00" routeLength="9993.40" waitSteps="0" timeLoss="16.40" rerouteNo="0" devices="tripinfo_0.0 emissions_0.0" vType="car2" speedFactor="1.00" vaporized="">
        <emissions CO_abs="27334.266380" CO2_abs="1412357.502623" HC_abs="455.158624" PMx_abs="134.651765" NOx_abs="3117.399294" fuel_abs="563.088859" electricity_abs="0"/>
    </tripinfo>
    <tripinfo id="0.1" depart="7.00" departLane="gneE0_0" departPos="6.60" departSpeed="0.00" departDelay="-0.20" arrival="326.00" arrivalLane="gneE0_0" arrivalPos="10000.00" arrivalSpeed="32.69" duration="319.00" routeLength="9993.40" waitSteps="0" timeLoss="15.31" rerouteNo="0" devices="tripinfo_0.1 emissions_0.1" vType="car2" speedFactor="1.00" vaporized="">
        <emissions CO_abs="26983.184499" CO2_abs="1387611.580381" HC_abs="449.489057" PMx_abs="133.661021" NOx_abs="3068.910544" fuel_abs="553.222915" electricity_abs="0"/>
    </tripinfo>
    <tripinfo id="1.1" depart="7.00" departLane="-gneE0_0" departPos="6.60" departSpeed="0.00" departDelay="-0.20" arrival="326.00" arrivalLane="-gneE0_0" arrivalPos="10000.00" arrivalSpeed="32.27" duration="319.00" routeLength="9993.40" waitSteps="0" timeLoss="15.30" rerouteNo="0" devices="tripinfo_1.1 emissions_1.1" vType="car2" speedFactor="1.00" vaporized="">
        <emissions CO_abs="27118.463316" CO2_abs="1393631.380525" HC_abs="452.928972" PMx_abs="134.141690" NOx_abs="3082.457442" fuel_abs="555.622873" electricity_abs="0"/>
    </tripinfo>
    <tripinfo id="1.2" depart="14.00" departLane="-gneE0_0" departPos="6.60" departSpeed="0.00" departDelay="-0.40" arrival="335.00" arrivalLane="-gneE0_0" arrivalPos="10000.00" arrivalSpeed="32.92" duration="321.00" routeLength="9993.40" waitSteps="0" timeLoss="17.03" rerouteNo="0" devices="tripinfo_1.2 emissions_1.2" vType="car2" speedFactor="1.00" vaporized="">
        <emissions CO_abs="27878.093426" CO2_abs="1438303.670815" HC_abs="463.611340" PMx_abs="137.222501" NOx_abs="3175.539092" fuel_abs="573.433286" electricity_abs="0"/>
    </tripinfo>
    <tripinfo id="1.3" depart="21.00" departLane="-gneE0_0" departPos="6.60" departSpeed="0.00" departDelay="-0.60" arrival="339.00" arrivalLane="-gneE0_0" arrivalPos="10000.00" arrivalSpeed="32.85" duration="318.00" routeLength="9993.40" waitSteps="0" timeLoss="14.90" rerouteNo="0" devices="tripinfo_1.3 emissions_1.3" vType="car2" speedFactor="1.00" vaporized="">
        <emissions CO_abs="26859.962110" CO2_abs="1380288.904267" HC_abs="447.121806" PMx_abs="132.570994" NOx_abs="3052.174830" fuel_abs="550.303473" electricity_abs="0"/>
    </tripinfo>
    <tripinfo id="0.3" depart="25.00" departLane="gneE0_0" departPos="6.60" departSpeed="0.00" departDelay="3.40" arrival="346.00" arrivalLane="gneE0_0" arrivalPos="10000.00" arrivalSpeed="32.68" duration="321.00" routeLength="9993.40" waitSteps="0" timeLoss="17.16" rerouteNo="0" devices="tripinfo_0.3 emissions_0.3" vType="car2" speedFactor="1.00" vaporized="">
        <emissions CO_abs="27502.897541" CO2_abs="1418638.347369" HC_abs="459.267545" PMx_abs="136.044678" NOx_abs="3134.026585" fuel_abs="565.592872" electricity_abs="0"/>
    </tripinfo>
    <tripinfo id="1.4" depart="28.00" departLane="-gneE0_0" departPos="6.60" departSpeed="0.00" departDelay="-0.80" arrival="347.00" arrivalLane="-gneE0_0" arrivalPos="10000.00" arrivalSpeed="32.74" duration="319.00" routeLength="9993.40" waitSteps="0" timeLoss="15.31" rerouteNo="0" devices="tripinfo_1.4 emissions_1.4" vType="car2" speedFactor="1.00" vaporized="">
        <emissions CO_abs="26181.492131" CO2_abs="1347669.754920" HC_abs="435.508793" PMx_abs="129.789715" NOx_abs="2979.957948" fuel_abs="537.298658" electricity_abs="0"/>
    </tripinfo>
    <tripinfo id="1.5" depart="36.00" departLane="-gneE0_0" departPos="6.60" departSpeed="0.00" departDelay="0.00" arrival="355.00" arrivalLane="-gneE0_0" arrivalPos="10000.00" arrivalSpeed="32.94" duration="319.00" routeLength="9993.40" waitSteps="0" timeLoss="15.38" rerouteNo="0" devices="tripinfo_1.5 emissions_1.5" vType="car2" speedFactor="1.00" vaporized="">
        <emissions CO_abs="27744.437118" CO2_abs="1426830.280214" HC_abs="462.470470" PMx_abs="136.598539" NOx_abs="3153.625447" fuel_abs="568.858905" electricity_abs="0"/>
    </tripinfo>
    <tripinfo id="0.5" depart="36.00" departLane="gneE0_0" departPos="6.60" departSpeed="0.00" departDelay="0.00" arrival="356.00" arrivalLane="gneE0_0" arrivalPos="10000.00" arrivalSpeed="32.17" duration="320.00" routeLength="9993.40" waitSteps="0" timeLoss="16.55" rerouteNo="0" devices="tripinfo_0.5 emissions_0.5" vType="car2" speedFactor="1.00" vaporized="">
        <emissions CO_abs="27746.842480" CO2_abs="1430415.975801" HC_abs="462.789348" PMx_abs="137.781303" NOx_abs="3162.195668" fuel_abs="570.288467" electricity_abs="0"/>
    </tripinfo>
    <tripinfo id="0.6" depart="43.00" departLane="gneE0_0" departPos="6.60" departSpeed="0.00" departDelay="-0.20" arrival="363.00" arrivalLane="gneE0_1" arrivalPos="10000.00" arrivalSpeed="32.59" duration="320.00" routeLength="9993.40" waitSteps="0" timeLoss="16.31" rerouteNo="0" devices="tripinfo_0.6 emissions_0.6" vType="car2" speedFactor="1.00" vaporized="">
        <emissions CO_abs="27624.626478" CO2_abs="1423426.653690" HC_abs="460.945838" PMx_abs="137.616664" NOx_abs="3148.458338" fuel_abs="567.501891" electricity_abs="0"/>
    </tripinfo>
    <tripinfo id="0.2" depart="14.00" departLane="gneE0_0" departPos="6.60" departSpeed="0.00" departDelay="-0.40" arrival="363.00" arrivalLane="gneE0_0" arrivalPos="10000.00" arrivalSpeed="29.30" duration="349.00" routeLength="9993.40" waitSteps="0" timeLoss="15.71" rerouteNo="0" devices="tripinfo_0.2 emissions_0.2" vType="car1" speedFactor="1.00" vaporized="">
        <emissions CO_abs="21983.664661" CO2_abs="1283676.047663" HC_abs="390.178606" PMx_abs="119.894115" NOx_abs="2773.960991" fuel_abs="511.784737" electricity_abs="0"/>
    </tripinfo>
    <tripinfo id="0.7" depart="50.00" departLane="gneE0_0" departPos="6.60" departSpeed="0.00" departDelay="-0.40" arrival="370.00" arrivalLane="gneE0_0" arrivalPos="10000.00" arrivalSpeed="32.67" duration="320.00" routeLength="9993.40" waitSteps="0" timeLoss="16.75" rerouteNo="0" devices="tripinfo_0.7 emissions_0.7" vType="car2" speedFactor="1.00" vaporized="">
        <emissions CO_abs="26318.379193" CO2_abs="1359093.701458" HC_abs="439.049220" PMx_abs="130.755758" NOx_abs="3002.970730" fuel_abs="541.853206" electricity_abs="0"/>
    </tripinfo>
    <tripinfo id="1.8" depart="57.00" departLane="-gneE0_0" departPos="6.60" departSpeed="0.00" departDelay="-0.60" arrival="376.00" arrivalLane="-gneE0_0" arrivalPos="10000.00" arrivalSpeed="32.37" duration="319.00" routeLength="9993.40" waitSteps="0" timeLoss="15.33" rerouteNo="0" devices="tripinfo_1.8 emissions_1.8" vType="car2" speedFactor="1.00" vaporized="">
        <emissions CO_abs="27460.834512" CO2_abs="1409658.107434" HC_abs="456.660709" PMx_abs="135.964910" NOx_abs="3119.018863" fuel_abs="562.012605" electricity_abs="0"/>
    </tripinfo>
    <tripinfo id="0.8" depart="57.00" departLane="gneE0_0" departPos="6.60" departSpeed="0.00" departDelay="-0.60" arrival="377.00" arrivalLane="gneE0_0" arrivalPos="10000.00" arrivalSpeed="32.88" duration="320.00" routeLength="9993.40" waitSteps="0" timeLoss="16.13" rerouteNo="0" devices="tripinfo_0.8 emissions_0.8" vType="car2" speedFactor="1.00" vaporized="">
        <emissions CO_abs="27441.570341" CO2_abs="1411308.403162" HC_abs="457.287744" PMx_abs="136.212582" NOx_abs="3121.882142" fuel_abs="562.670525" electricity_abs="0"/>
    </tripinfo>
    <tripinfo id="0.4" depart="29.00" departLane="gneE0_0" departPos="6.60" departSpeed="0.00" departDelay="0.20" arrival="378.00" arrivalLane="gneE0_0" arrivalPos="10000.00" arrivalSpeed="29.70" duration="349.00" routeLength="9993.40" waitSteps="0" timeLoss="15.68" rerouteNo="0" devices="tripinfo_0.4 emissions_0.4" vType="car1" speedFactor="1.00" vaporized="">
        <emissions CO_abs="21641.612336" CO2_abs="1258860.070834" HC_abs="384.539043" PMx_abs="118.650365" NOx_abs="2724.857107" fuel_abs="501.890870" electricity_abs="0"/>
    </tripinfo>
    <tripinfo id="0.9" depart="64.00" departLane="gneE0_0" departPos="6.60" departSpeed="0.00" departDelay="-0.80" arrival="383.00" arrivalLane="gneE0_0" arrivalPos="10000.00" arrivalSpeed="32.71" duration="319.00" routeLength="9993.40" waitSteps="0" timeLoss="15.16" rerouteNo="0" devices="tripinfo_0.9 emissions_0.9" vType="car2" speedFactor="1.00" vaporized="">
        <emissions CO_abs="28496.382293" CO2_abs="1459820.578947" HC_abs="474.527940" PMx_abs="140.948564" NOx_abs="3231.821903" fuel_abs="582.011691" electricity_abs="0"/>
    </tripinfo>
    <tripinfo id="1.10" depart="72.00" departLane="-gneE0_0" departPos="6.60" departSpeed="0.00" departDelay="0.00" arrival="392.00" arrivalLane="-gneE0_1" arrivalPos="10000.00" arrivalSpeed="32.58" duration="320.00" routeLength="9993.40" waitSteps="0" timeLoss="16.97" rerouteNo="0" devices="tripinfo_1.10 emissions_1.10" vType="car2" speedFactor="1.00" vaporized="">
        <emissions CO_abs="27279.907036" CO2_abs="1410113.102163" HC_abs="455.434330" PMx_abs="134.458218" NOx_abs="3112.349745" fuel_abs="562.193993" electricity_abs="0"/>
    </tripinfo>
    <tripinfo id="0.10" depart="72.00" departLane="gneE0_0" departPos="6.60" departSpeed="0.00" departDelay="0.00" arrival="392.00" arrivalLane="gneE0_0" arrivalPos="10000.00" arrivalSpeed="32.34" duration="320.00" routeLength="9993.40" waitSteps="0" timeLoss="16.33" rerouteNo="0" devices="tripinfo_0.10 emissions_0.10" vType="car2" speedFactor="1.00" vaporized="">
        <emissions CO_abs="27785.227780" CO2_abs="1424991.094439" HC_abs="463.360727" PMx_abs="137.529435" NOx_abs="3153.446364" fuel_abs="568.125610" electricity_abs="0"/>
    </tripinfo>
    <tripinfo id="1.6" depart="43.00" departLane="-gneE0_0" departPos="6.60" departSpeed="0.00" departDelay="-0.20" arrival="392.00" arrivalLane="-gneE0_0" arrivalPos="10000.00" arrivalSpeed="29.47" duration="349.00" routeLength="9993.40" waitSteps="0" timeLoss="14.89" rerouteNo="0" devices="tripinfo_1.6 emissions_1.6" vType="car1" speedFactor="1.00" vaporized="">
        <emissions CO_abs="22435.180439" CO2_abs="1312352.168542" HC_abs="397.178311" PMx_abs="122.054996" NOx_abs="2834.074584" fuel_abs="523.217589" electricity_abs="0"/>
    </tripinfo>
    <tripinfo id="0.11" depart="79.00" departLane="gneE0_0" departPos="6.60" departSpeed="0.00" departDelay="-0.20" arrival="397.00" arrivalLane="gneE0_0" arrivalPos="10000.00" arrivalSpeed="32.21" duration="318.00" routeLength="9993.40" waitSteps="0" timeLoss="14.54" rerouteNo="0" devices="tripinfo_0.11 emissions_0.11" vType="car2" speedFactor="1.00" vaporized="">
        <emissions CO_abs="27024.118044" CO2_abs="1384441.374442" HC_abs="449.941864" PMx_abs="134.113296" NOx_abs="3066.003450" fuel_abs="551.958967" electricity_abs="0"/>
    </tripinfo>
    <tripinfo id="1.11" depart="79.00" departLane="-gneE0_0" departPos="6.60" departSpeed="0.00" departDelay="-0.20" arrival="398.00" arrivalLane="-gneE0_1" arrivalPos="10000.00" arrivalSpeed="32.63" duration="319.00" routeLength="9993.40" waitSteps="0" timeLoss="15.79" rerouteNo="0" devices="tripinfo_1.11 emissions_1.11" vType="car2" speedFactor="1.00" vaporized="">
        <emissions CO_abs="27764.968851" CO2_abs="1428820.582637" HC_abs="461.612726" PMx_abs="137.328981" NOx_abs="3158.967636" fuel_abs="569.652465" electricity_abs="0"/>
    </tripinfo>
    <tripinfo id="1.7" depart="50.00" departLane="-gneE0_0" departPos="6.60" departSpeed="0.00" departDelay="-0.40" arrival="398.00" arrivalLane="-gneE0_0" arrivalPos="10000.00" arrivalSpeed="29.45" duration="348.00" routeLength="9993.40" waitSteps="0" timeLoss="14.71" rerouteNo="0" devices="tripinfo_1.7 emissions_1.7" vType="car1" speedFactor="1.00" vaporized="">
        <emissions CO_abs="22049.660556" CO2_abs="1279673.355728" HC_abs="391.311334" PMx_abs="120.520377" NOx_abs="2770.803642" fuel_abs="510.188859" electricity_abs="0"/>
    </tripinfo>
    <tripinfo id="1.12" depart="86.00" departLane="-gneE0_0" departPos="6.60" departSpeed="0.00" departDelay="-0.40" arrival="405.00" arrivalLane="-gneE0_0" arrivalPos="10000.00" arrivalSpeed="32.99" duration="319.00" routeLength="9993.40" waitSteps="0" timeLoss="15.04" rerouteNo="0" devices="tripinfo_1.12 emissions_1.12" vType="car2" speedFactor="1.00" vaporized="">
        <emissions CO_abs="28180.940736" CO2_abs="1445424.610079" HC_abs="468.763962" PMx_abs="139.039739" NOx_abs="3197.891209" fuel_abs="576.272242" electricity_abs="0"/>
    </tripinfo>
    <tripinfo id="1.13" depart="93.00" departLane="-gneE0_0" departPos="6.60" departSpeed="0.00" departDelay="-0.60" arrival="411.00" arrivalLane="-gneE0_0" arrivalPos="10000.00" arrivalSpeed="32.82" duration="318.00" routeLength="9993.40" waitSteps="0" timeLoss="15.02" rerouteNo="0" devices="tripinfo_1.13 emissions_1.13" vType="car2" speedFactor="1.00" vaporized="">
        <emissions CO_abs="28313.219383" CO2_abs="1451613.472702" HC_abs="469.727441" PMx_abs="139.938805" NOx_abs="3212.384654" fuel_abs="578.739715" electricity_abs="0"/>
    </tripinfo>
    <tripinfo id="0.13" depart="93.00" departLane="gneE0_0" departPos="6.60" departSpeed="0.00" departDelay="-0.60" arrival="413.00" arrivalLane="gneE0_0" arrivalPos="10000.00" arrivalSpeed="32.64" duration="320.00" routeLength="9993.40" waitSteps="0" timeLoss="16.34" rerouteNo="0" devices="tripinfo_0.13 emissions_0.13" vType="car2" speedFactor="1.00" vaporized="">
        <emissions CO_abs="27651.836306" CO2_abs="1423678.919584" HC_abs="460.879722" PMx_abs="137.406715" NOx_abs="3148.628597" fuel_abs="567.602493" electricity_abs="0"/>
    </tripinfo>
    <tripinfo id="1.9" depart="64.00" departLane="-gneE0_0" departPos="6.60" departSpeed="0.00" departDelay="-0.80" arrival="413.00" arrivalLane="-gneE0_0" arrivalPos="10000.00" arrivalSpeed="29.96" duration="349.00" routeLength="9993.40" waitSteps="0" timeLoss="15.11" rerouteNo="0" devices="tripinfo_1.9 emissions_1.9" vType="car1" speedFactor="1.00" vaporized="">
        <emissions CO_abs="22125.966593" CO2_abs="1291225.388144" HC_abs="392.279461" PMx_abs="120.790455" NOx_abs="2791.163041" fuel_abs="514.794570" electricity_abs="0"/>
    </tripinfo>
    <tripinfo id="dangerous_car" depart="20.00" departLane="gneE0_0" departPos="6.60" departSpeed="0.00" departDelay="0.00" arrival="439.00" arrivalLane="gneE0_0" arrivalPos="10000.00" arrivalSpeed="24.94" duration="419.00" routeLength="9993.40" waitSteps="0" timeLoss="18.91" rerouteNo="0" devices="tripinfo_dangerous_car emissions_dangerous_car" vType="truck" speedFactor="1.00" vaporized="">
        <emissions CO_abs="6902.391220" CO2_abs="6008469.047815" HC_abs="1712.771750" PMx_abs="875.233087" NOx_abs="53460.649542" fuel_abs="2395.510285" electricity_abs="0"/>
    </tripinfo>
</tripinfos>
