<?xml version="1.0" encoding="UTF-8"?>

<!-- generated on Wed Oct 11 07:08:13 2017 by SUMO Version 0.30.0
<?xml version="1.0" encoding="UTF-8"?>

<configuration xmlns:xsi="http://www.w3.org/2001/XMLSchema-instance" xsi:noNamespaceSchemaLocation="http://sumo.dlr.de/xsd/sumoConfiguration.xsd">

    <input>
        <net-file value="./network/highway.net.xml"/>
        <route-files value="./network/highway.rou.xml"/>
    </input>

    <output>
        <netstate-dump value="./network/../log/sumo/netstate.dump"/>
        <tripinfo-output value="./network/../log/sumo/tripinfo"/>
        <tripinfo-output.write-unfinished value="false"/>
    </output>

    <time>
        <begin value="0"/>
        <end value="840"/>
    </time>

    <emissions>
        <device.emissions.probability value="1"/>
    </emissions>

    <traci_server>
        <remote-port value="5500"/>
    </traci_server>

    <random_number>
        <seed value="14884"/>
    </random_number>

</configuration>
-->

<tripinfos xmlns:xsi="http://www.w3.org/2001/XMLSchema-instance" xsi:noNamespaceSchemaLocation="http://sumo.dlr.de/xsd/tripinfo_file.xsd">
    <tripinfo id="1.0" depart="0.00" departLane="-gneE0_0" departPos="6.60" departSpeed="0.00" departDelay="0.00" arrival="319.00" arrivalLane="-gneE0_0" arrivalPos="10000.00" arrivalSpeed="32.43" duration="319.00" routeLength="9993.40" waitSteps="0" timeLoss="15.26" rerouteNo="0" devices="tripinfo_1.0 emissions_1.0" vType="car2" speedFactor="1.00" vaporized="">
        <emissions CO_abs="27739.638315" CO2_abs="1426231.782960" HC_abs="461.652078" PMx_abs="136.991873" NOx_abs="3153.578253" fuel_abs="568.620317" electricity_abs="0"/>
    </tripinfo>
    <tripinfo id="0.0" depart="0.00" departLane="gneE0_0" departPos="6.60" departSpeed="0.00" departDelay="0.00" arrival="320.00" arrivalLane="gneE0_0" arrivalPos="10000.00" arrivalSpeed="32.76" duration="320.00" routeLength="9993.40" waitSteps="0" timeLoss="16.17" rerouteNo="0" devices="tripinfo_0.0 emissions_0.0" vType="car2" speedFactor="1.00" vaporized="">
        <emissions CO_abs="24564.954783" CO2_abs="1269879.690148" HC_abs="411.011561" PMx_abs="121.555376" NOx_abs="2803.690274" fuel_abs="506.284688" electricity_abs="0"/>
    </tripinfo>
    <tripinfo id="0.1" depart="4.00" departLane="gneE0_0" departPos="6.60" departSpeed="0.00" departDelay="2.80" arrival="323.00" arrivalLane="gneE0_0" arrivalPos="10000.00" arrivalSpeed="32.18" duration="319.00" routeLength="9993.40" waitSteps="0" timeLoss="15.84" rerouteNo="0" devices="tripinfo_0.1 emissions_0.1" vType="car2" speedFactor="1.00" vaporized="">
        <emissions CO_abs="26451.557534" CO2_abs="1364093.392252" HC_abs="441.863584" PMx_abs="130.465293" NOx_abs="3013.080655" fuel_abs="543.846491" electricity_abs="0"/>
    </tripinfo>
    <tripinfo id="1.1" depart="4.00" departLane="-gneE0_0" departPos="6.60" departSpeed="0.00" departDelay="2.80" arrival="323.00" arrivalLane="-gneE0_0" arrivalPos="10000.00" arrivalSpeed="32.78" duration="319.00" routeLength="9993.40" waitSteps="0" timeLoss="15.41" rerouteNo="0" devices="tripinfo_1.1 emissions_1.1" vType="car2" speedFactor="1.00" vaporized="">
        <emissions CO_abs="28276.086504" CO2_abs="1452695.474785" HC_abs="469.004568" PMx_abs="139.395542" NOx_abs="3211.904408" fuel_abs="579.171125" electricity_abs="0"/>
    </tripinfo>
    <tripinfo id="1.2" depart="8.00" departLane="-gneE0_0" departPos="6.60" departSpeed="0.00" departDelay="5.60" arrival="327.00" arrivalLane="-gneE0_0" arrivalPos="10000.00" arrivalSpeed="32.55" duration="319.00" routeLength="9993.40" waitSteps="0" timeLoss="15.40" rerouteNo="0" devices="tripinfo_1.2 emissions_1.2" vType="car2" speedFactor="1.00" vaporized="">
        <emissions CO_abs="27008.443851" CO2_abs="1387542.495544" HC_abs="449.268028" PMx_abs="133.130989" NOx_abs="3067.849426" fuel_abs="553.195407" electricity_abs="0"/>
    </tripinfo>
    <tripinfo id="1.3" depart="12.00" departLane="-gneE0_0" departPos="6.60" departSpeed="0.00" departDelay="8.40" arrival="331.00" arrivalLane="-gneE0_0" arrivalPos="10000.00" arrivalSpeed="32.69" duration="319.00" routeLength="9993.40" waitSteps="0" timeLoss="15.82" rerouteNo="0" devices="tripinfo_1.3 emissions_1.3" vType="car2" speedFactor="1.00" vaporized="">
        <emissions CO_abs="28140.704291" CO2_abs="1448186.941475" HC_abs="467.660661" PMx_abs="138.895146" NOx_abs="3200.868519" fuel_abs="577.373600" electricity_abs="0"/>
    </tripinfo>
    <tripinfo id="0.3" depart="12.00" departLane="gneE0_0" departPos="6.60" departSpeed="0.00" departDelay="8.40" arrival="332.00" arrivalLane="gneE0_0" arrivalPos="10000.00" arrivalSpeed="32.35" duration="320.00" routeLength="9993.40" waitSteps="0" timeLoss="16.69" rerouteNo="0" devices="tripinfo_0.3 emissions_0.3" vType="car2" speedFactor="1.00" vaporized="">
        <emissions CO_abs="26742.669341" CO2_abs="1379042.541163" HC_abs="446.019230" PMx_abs="132.504674" NOx_abs="3047.333892" fuel_abs="549.806553" electricity_abs="0"/>
    </tripinfo>
    <tripinfo id="1.4" depart="16.00" departLane="-gneE0_0" departPos="6.60" departSpeed="0.00" departDelay="11.20" arrival="335.00" arrivalLane="-gneE0_0" arrivalPos="10000.00" arrivalSpeed="32.53" duration="319.00" routeLength="9993.40" waitSteps="0" timeLoss="15.89" rerouteNo="0" devices="tripinfo_1.4 emissions_1.4" vType="car2" speedFactor="1.00" vaporized="">
        <emissions CO_abs="26424.068155" CO2_abs="1361841.436834" HC_abs="440.077343" PMx_abs="130.623970" NOx_abs="3009.234770" fuel_abs="542.948719" electricity_abs="0"/>
    </tripinfo>
    <tripinfo id="0.5" depart="19.00" departLane="gneE0_0" departPos="6.60" departSpeed="0.00" departDelay="13.00" arrival="338.00" arrivalLane="gneE0_0" arrivalPos="10000.00" arrivalSpeed="32.27" duration="319.00" routeLength="9993.40" waitSteps="0" timeLoss="16.01" rerouteNo="0" devices="tripinfo_0.5 emissions_0.5" vType="car2" speedFactor="1.00" vaporized="">
        <emissions CO_abs="27417.280161" CO2_abs="1411442.740182" HC_abs="456.160469" PMx_abs="135.631244" NOx_abs="3120.143873" fuel_abs="562.724133" electricity_abs="0"/>
    </tripinfo>
    <tripinfo id="1.5" depart="20.00" departLane="-gneE0_0" departPos="6.60" departSpeed="0.00" departDelay="14.00" arrival="339.00" arrivalLane="-gneE0_0" arrivalPos="10000.00" arrivalSpeed="32.36" duration="319.00" routeLength="9993.40" waitSteps="0" timeLoss="15.99" rerouteNo="0" devices="tripinfo_1.5 emissions_1.5" vType="car2" speedFactor="1.00" vaporized="">
        <emissions CO_abs="26775.001078" CO2_abs="1379113.544586" HC_abs="444.910463" PMx_abs="132.151682" NOx_abs="3047.129204" fuel_abs="549.834935" electricity_abs="0"/>
    </tripinfo>
    <tripinfo id="0.6" depart="23.00" departLane="gneE0_0" departPos="6.60" departSpeed="0.00" departDelay="15.80" arrival="342.00" arrivalLane="gneE0_0" arrivalPos="10000.00" arrivalSpeed="32.22" duration="319.00" routeLength="9993.40" waitSteps="0" timeLoss="15.26" rerouteNo="0" devices="tripinfo_0.6 emissions_0.6" vType="car2" speedFactor="1.00" vaporized="">
        <emissions CO_abs="26668.747737" CO2_abs="1373192.571862" HC_abs="445.171813" PMx_abs="131.755462" NOx_abs="3035.252604" fuel_abs="547.474212" electricity_abs="0"/>
    </tripinfo>
    <tripinfo id="0.7" depart="26.00" departLane="gneE0_0" departPos="6.60" departSpeed="0.00" departDelay="17.60" arrival="346.00" arrivalLane="gneE0_0" arrivalPos="10000.00" arrivalSpeed="32.15" duration="320.00" routeLength="9993.40" waitSteps="1" timeLoss="16.39" rerouteNo="0" devices="tripinfo_0.7 emissions_0.7" vType="car2" speedFactor="1.00" vaporized="">
        <emissions CO_abs="28162.430984" CO2_abs="1449293.499270" HC_abs="468.912410" PMx_abs="139.121070" NOx_abs="3203.582787" fuel_abs="577.814730" electricity_abs="0"/>
    </tripinfo>
    <tripinfo id="0.8" depart="30.00" departLane="gneE0_0" departPos="6.60" departSpeed="0.00" departDelay="20.40" arrival="350.00" arrivalLane="gneE0_0" arrivalPos="10000.00" arrivalSpeed="32.65" duration="320.00" routeLength="9993.40" waitSteps="0" timeLoss="16.23" rerouteNo="0" devices="tripinfo_0.8 emissions_0.8" vType="car2" speedFactor="1.00" vaporized="">
        <emissions CO_abs="27268.530931" CO2_abs="1406581.865381" HC_abs="453.536430" PMx_abs="134.334143" NOx_abs="3106.201870" fuel_abs="560.786196" electricity_abs="0"/>
    </tripinfo>
    <tripinfo id="1.8" depart="31.00" departLane="-gneE0_0" departPos="6.60" departSpeed="0.00" departDelay="21.40" arrival="350.00" arrivalLane="-gneE0_0" arrivalPos="10000.00" arrivalSpeed="32.12" duration="319.00" routeLength="9993.40" waitSteps="0" timeLoss="15.70" rerouteNo="0" devices="tripinfo_1.8 emissions_1.8" vType="car2" speedFactor="1.00" vaporized="">
        <emissions CO_abs="26655.404042" CO2_abs="1374163.547775" HC_abs="444.606220" PMx_abs="131.754361" NOx_abs="3036.331075" fuel_abs="547.861355" electricity_abs="0"/>
    </tripinfo>
    <tripinfo id="0.9" depart="34.00" departLane="gneE0_0" departPos="6.60" departSpeed="0.00" departDelay="23.20" arrival="353.00" arrivalLane="gneE0_0" arrivalPos="10000.00" arrivalSpeed="32.37" duration="319.00" routeLength="9993.40" waitSteps="0" timeLoss="15.44" rerouteNo="0" devices="tripinfo_0.9 emissions_0.9" vType="car2" speedFactor="1.00" vaporized="">
        <emissions CO_abs="28227.926498" CO2_abs="1453468.332078" HC_abs="470.243916" PMx_abs="139.590690" NOx_abs="3213.099567" fuel_abs="579.479164" electricity_abs="0"/>
    </tripinfo>
    <tripinfo id="0.10" depart="37.00" departLane="gneE0_0" departPos="6.60" departSpeed="0.00" departDelay="25.00" arrival="356.00" arrivalLane="gneE0_1" arrivalPos="10000.00" arrivalSpeed="32.75" duration="319.00" routeLength="9993.40" waitSteps="0" timeLoss="15.98" rerouteNo="0" devices="tripinfo_0.10 emissions_0.10" vType="car2" speedFactor="1.00" vaporized="">
        <emissions CO_abs="27565.233766" CO2_abs="1416634.127269" HC_abs="458.983787" PMx_abs="136.159377" NOx_abs="3132.631985" fuel_abs="564.793845" electricity_abs="0"/>
    </tripinfo>
    <tripinfo id="0.2" depart="8.00" departLane="gneE0_0" departPos="6.60" departSpeed="0.00" departDelay="5.60" arrival="357.00" arrivalLane="gneE0_0" arrivalPos="10000.00" arrivalSpeed="29.27" duration="349.00" routeLength="9993.40" waitSteps="0" timeLoss="15.48" rerouteNo="0" devices="tripinfo_0.2 emissions_0.2" vType="car1" speedFactor="1.00" vaporized="">
        <emissions CO_abs="22835.840972" CO2_abs="1329980.542419" HC_abs="404.079079" PMx_abs="125.007407" NOx_abs="2877.202637" fuel_abs="530.245756" electricity_abs="0"/>
    </tripinfo>
    <tripinfo id="1.10" depart="38.00" departLane="-gneE0_0" departPos="6.60" departSpeed="0.00" departDelay="26.00" arrival="357.00" arrivalLane="-gneE0_0" arrivalPos="10000.00" arrivalSpeed="32.26" duration="319.00" routeLength="9993.40" waitSteps="0" timeLoss="15.91" rerouteNo="0" devices="tripinfo_1.10 emissions_1.10" vType="car2" speedFactor="1.00" vaporized="">
        <emissions CO_abs="25917.656194" CO2_abs="1333368.914794" HC_abs="433.058545" PMx_abs="128.895034" NOx_abs="2949.793368" fuel_abs="531.596999" electricity_abs="0"/>
    </tripinfo>
    <tripinfo id="0.11" depart="42.00" departLane="gneE0_0" departPos="6.60" departSpeed="0.00" departDelay="28.80" arrival="361.00" arrivalLane="gneE0_0" arrivalPos="10000.00" arrivalSpeed="32.58" duration="319.00" routeLength="9993.40" waitSteps="0" timeLoss="15.59" rerouteNo="0" devices="tripinfo_0.11 emissions_0.11" vType="car2" speedFactor="1.00" vaporized="">
        <emissions CO_abs="27032.019107" CO2_abs="1391980.164224" HC_abs="450.504556" PMx_abs="133.541028" NOx_abs="3076.550451" fuel_abs="554.964620" electricity_abs="0"/>
    </tripinfo>
    <tripinfo id="1.11" depart="42.00" departLane="-gneE0_0" departPos="6.60" departSpeed="0.00" departDelay="28.80" arrival="362.00" arrivalLane="-gneE0_0" arrivalPos="10000.00" arrivalSpeed="32.93" duration="320.00" routeLength="9993.40" waitSteps="0" timeLoss="16.17" rerouteNo="0" devices="tripinfo_1.11 emissions_1.11" vType="car2" speedFactor="1.00" vaporized="">
        <emissions CO_abs="27266.391163" CO2_abs="1403858.319828" HC_abs="453.774337" PMx_abs="134.906978" NOx_abs="3103.249283" fuel_abs="559.700317" electricity_abs="0"/>
    </tripinfo>
    <tripinfo id="0.4" depart="16.00" departLane="gneE0_0" departPos="6.60" departSpeed="0.00" departDelay="11.20" arrival="364.00" arrivalLane="gneE0_0" arrivalPos="10000.00" arrivalSpeed="29.61" duration="348.00" routeLength="9993.40" waitSteps="0" timeLoss="14.43" rerouteNo="0" devices="tripinfo_0.4 emissions_0.4" vType="car1" speedFactor="1.00" vaporized="">
        <emissions CO_abs="22717.361924" CO2_abs="1329870.024912" HC_abs="401.713473" PMx_abs="123.875552" NOx_abs="2872.269227" fuel_abs="530.201747" electricity_abs="0"/>
    </tripinfo>
    <tripinfo id="1.12" depart="46.00" departLane="-gneE0_0" departPos="6.60" departSpeed="0.00" departDelay="31.60" arrival="366.00" arrivalLane="-gneE0_0" arrivalPos="10000.00" arrivalSpeed="32.45" duration="320.00" routeLength="9993.40" waitSteps="0" timeLoss="16.73" rerouteNo="0" devices="tripinfo_1.12 emissions_1.12" vType="car2" speedFactor="1.00" vaporized="">
        <emissions CO_abs="27628.226393" CO2_abs="1425211.604138" HC_abs="460.872908" PMx_abs="136.845919" NOx_abs="3149.184226" fuel_abs="568.213561" electricity_abs="0"/>
    </tripinfo>
    <tripinfo id="1.13" depart="50.00" departLane="-gneE0_0" departPos="6.60" departSpeed="0.00" departDelay="34.40" arrival="370.00" arrivalLane="-gneE0_0" arrivalPos="10000.00" arrivalSpeed="32.55" duration="320.00" routeLength="9993.40" waitSteps="0" timeLoss="16.08" rerouteNo="0" devices="tripinfo_1.13 emissions_1.13" vType="car2" speedFactor="1.00" vaporized="">
        <emissions CO_abs="27704.763669" CO2_abs="1430355.413513" HC_abs="461.351524" PMx_abs="136.630760" NOx_abs="3158.411274" fuel_abs="570.264381" electricity_abs="0"/>
    </tripinfo>
    <tripinfo id="0.13" depart="51.00" departLane="gneE0_0" departPos="6.60" departSpeed="0.00" departDelay="35.40" arrival="371.00" arrivalLane="gneE0_0" arrivalPos="10000.00" arrivalSpeed="32.89" duration="320.00" routeLength="9993.40" waitSteps="0" timeLoss="16.84" rerouteNo="0" devices="tripinfo_0.13 emissions_0.13" vType="car2" speedFactor="1.00" vaporized="">
        <emissions CO_abs="26401.622728" CO2_abs="1362343.159554" HC_abs="440.306505" PMx_abs="130.429875" NOx_abs="3009.024561" fuel_abs="543.148734" electricity_abs="0"/>
    </tripinfo>
    <tripinfo id="1.14" depart="53.00" departLane="-gneE0_0" departPos="6.60" departSpeed="0.00" departDelay="36.20" arrival="373.00" arrivalLane="-gneE0_1" arrivalPos="10000.00" arrivalSpeed="32.30" duration="320.00" routeLength="9993.40" waitSteps="0" timeLoss="16.91" rerouteNo="0" devices="tripinfo_1.14 emissions_1.14" vType="car2" speedFactor="1.00" vaporized="">
        <emissions CO_abs="28645.451428" CO2_abs="1469005.106305" HC_abs="477.730849" PMx_abs="142.362468" NOx_abs="3252.463192" fuel_abs="585.673418" electricity_abs="0"/>
    </tripinfo>
    <tripinfo id="1.6" depart="24.00" departLane="-gneE0_0" departPos="6.60" departSpeed="0.00" departDelay="16.80" arrival="373.00" arrivalLane="-gneE0_0" arrivalPos="10000.00" arrivalSpeed="29.23" duration="349.00" routeLength="9993.40" waitSteps="0" timeLoss="14.91" rerouteNo="0" devices="tripinfo_1.6 emissions_1.6" vType="car1" speedFactor="1.00" vaporized="">
        <emissions CO_abs="21918.369251" CO2_abs="1277515.210677" HC_abs="389.028127" PMx_abs="119.791697" NOx_abs="2762.972040" fuel_abs="509.328467" electricity_abs="0"/>
    </tripinfo>
    <tripinfo id="0.14" depart="55.00" departLane="gneE0_0" departPos="6.60" departSpeed="0.00" departDelay="38.20" arrival="375.00" arrivalLane="gneE0_0" arrivalPos="10000.00" arrivalSpeed="32.66" duration="320.00" routeLength="9993.40" waitSteps="0" timeLoss="16.61" rerouteNo="0" devices="tripinfo_0.14 emissions_0.14" vType="car2" speedFactor="1.00" vaporized="">
        <emissions CO_abs="26563.896885" CO2_abs="1368297.364644" HC_abs="443.460988" PMx_abs="131.620388" NOx_abs="3024.647667" fuel_abs="545.522559" electricity_abs="0"/>
    </tripinfo>
    <tripinfo id="1.7" depart="27.00" departLane="-gneE0_0" departPos="6.60" departSpeed="0.00" departDelay="18.60" arrival="376.00" arrivalLane="-gneE0_0" arrivalPos="10000.00" arrivalSpeed="29.08" duration="349.00" routeLength="9993.40" waitSteps="0" timeLoss="15.15" rerouteNo="0" devices="tripinfo_1.7 emissions_1.7" vType="car1" speedFactor="1.00" vaporized="">
        <emissions CO_abs="23077.822528" CO2_abs="1344863.435740" HC_abs="408.390721" PMx_abs="125.747439" NOx_abs="2907.642450" fuel_abs="536.179381" electricity_abs="0"/>
    </tripinfo>
    <tripinfo id="1.15" depart="57.00" departLane="-gneE0_0" departPos="6.60" departSpeed="0.00" departDelay="39.00" arrival="378.00" arrivalLane="-gneE0_0" arrivalPos="10000.00" arrivalSpeed="32.29" duration="321.00" routeLength="9993.40" waitSteps="0" timeLoss="17.32" rerouteNo="0" devices="tripinfo_1.15 emissions_1.15" vType="car2" speedFactor="1.00" vaporized="">
        <emissions CO_abs="27028.480879" CO2_abs="1392327.578836" HC_abs="450.561533" PMx_abs="134.245606" NOx_abs="3078.278600" fuel_abs="555.103128" electricity_abs="0"/>
    </tripinfo>
    <tripinfo id="0.15" depart="59.00" departLane="gneE0_0" departPos="6.60" departSpeed="0.00" departDelay="41.00" arrival="379.00" arrivalLane="gneE0_0" arrivalPos="10000.00" arrivalSpeed="32.94" duration="320.00" routeLength="9993.40" waitSteps="0" timeLoss="16.14" rerouteNo="0" devices="tripinfo_0.15 emissions_0.15" vType="car2" speedFactor="1.00" vaporized="">
        <emissions CO_abs="27963.758460" CO2_abs="1437597.051731" HC_abs="465.876632" PMx_abs="138.681945" NOx_abs="3180.121394" fuel_abs="573.151474" electricity_abs="0"/>
    </tripinfo>
    <tripinfo id="1.16" depart="62.00" departLane="-gneE0_0" departPos="6.60" departSpeed="0.00" departDelay="42.80" arrival="381.00" arrivalLane="-gneE0_0" arrivalPos="10000.00" arrivalSpeed="32.75" duration="319.00" routeLength="9993.40" waitSteps="0" timeLoss="15.81" rerouteNo="0" devices="tripinfo_1.16 emissions_1.16" vType="car2" speedFactor="1.00" vaporized="">
        <emissions CO_abs="26454.437413" CO2_abs="1363759.263569" HC_abs="439.577220" PMx_abs="130.564855" NOx_abs="3012.699564" fuel_abs="543.713383" electricity_abs="0"/>
    </tripinfo>
    <tripinfo id="1.9" depart="34.00" departLane="-gneE0_0" departPos="6.60" departSpeed="0.00" departDelay="23.20" arrival="383.00" arrivalLane="-gneE0_0" arrivalPos="10000.00" arrivalSpeed="29.24" duration="349.00" routeLength="9993.40" waitSteps="0" timeLoss="15.69" rerouteNo="0" devices="tripinfo_1.9 emissions_1.9" vType="car1" speedFactor="1.00" vaporized="">
        <emissions CO_abs="23337.555195" CO2_abs="1366267.505549" HC_abs="413.394538" PMx_abs="127.046937" NOx_abs="2950.043099" fuel_abs="544.712923" electricity_abs="0"/>
    </tripinfo>
    <tripinfo id="1.17" depart="66.00" departLane="-gneE0_0" departPos="6.60" departSpeed="0.00" departDelay="45.60" arrival="386.00" arrivalLane="-gneE0_0" arrivalPos="10000.00" arrivalSpeed="32.12" duration="320.00" routeLength="9993.40" waitSteps="0" timeLoss="16.34" rerouteNo="0" devices="tripinfo_1.17 emissions_1.17" vType="car2" speedFactor="1.00" vaporized="">
        <emissions CO_abs="27351.773233" CO2_abs="1410712.024669" HC_abs="455.328737" PMx_abs="135.096462" NOx_abs="3116.184887" fuel_abs="562.432814" electricity_abs="0"/>
    </tripinfo>
    <tripinfo id="1.18" depart="70.00" departLane="-gneE0_0" departPos="6.60" departSpeed="0.00" departDelay="48.40" arrival="389.00" arrivalLane="-gneE0_0" arrivalPos="10000.00" arrivalSpeed="32.42" duration="319.00" routeLength="9993.40" waitSteps="0" timeLoss="15.57" rerouteNo="0" devices="tripinfo_1.18 emissions_1.18" vType="car2" speedFactor="1.00" vaporized="">
        <emissions CO_abs="28830.001511" CO2_abs="1480443.549461" HC_abs="477.727328" PMx_abs="142.072012" NOx_abs="3273.569864" fuel_abs="590.233947" electricity_abs="0"/>
    </tripinfo>
    <tripinfo id="1.19" depart="74.00" departLane="-gneE0_0" departPos="6.60" departSpeed="0.00" departDelay="51.20" arrival="393.00" arrivalLane="-gneE0_0" arrivalPos="10000.00" arrivalSpeed="32.78" duration="319.00" routeLength="9993.40" waitSteps="0" timeLoss="15.07" rerouteNo="0" devices="tripinfo_1.19 emissions_1.19" vType="car2" speedFactor="1.00" vaporized="">
        <emissions CO_abs="27691.410311" CO2_abs="1423950.023158" HC_abs="459.661782" PMx_abs="136.356325" NOx_abs="3147.298844" fuel_abs="567.710671" electricity_abs="0"/>
    </tripinfo>
    <tripinfo id="0.17" depart="73.00" departLane="gneE0_0" departPos="6.60" departSpeed="0.00" departDelay="52.60" arrival="394.00" arrivalLane="gneE0_0" arrivalPos="10000.00" arrivalSpeed="32.26" duration="321.00" routeLength="9993.40" waitSteps="0" timeLoss="17.11" rerouteNo="0" devices="tripinfo_0.17 emissions_0.17" vType="car2" speedFactor="1.00" vaporized="">
        <emissions CO_abs="26973.413750" CO2_abs="1391909.935517" HC_abs="450.127226" PMx_abs="133.283464" NOx_abs="3074.113667" fuel_abs="554.936620" electricity_abs="0"/>
    </tripinfo>
    <tripinfo id="1.20" depart="78.00" departLane="-gneE0_0" departPos="6.60" departSpeed="0.00" departDelay="54.00" arrival="396.00" arrivalLane="-gneE0_0" arrivalPos="10000.00" arrivalSpeed="32.62" duration="318.00" routeLength="9993.40" waitSteps="0" timeLoss="15.01" rerouteNo="0" devices="tripinfo_1.20 emissions_1.20" vType="car2" speedFactor="1.00" vaporized="">
        <emissions CO_abs="27246.186520" CO2_abs="1399242.450014" HC_abs="452.954775" PMx_abs="134.727382" NOx_abs="3095.254105" fuel_abs="557.860027" electricity_abs="0"/>
    </tripinfo>
    <tripinfo id="0.18" depart="77.00" departLane="gneE0_0" departPos="6.60" departSpeed="0.00" departDelay="55.40" arrival="398.00" arrivalLane="gneE0_0" arrivalPos="10000.00" arrivalSpeed="32.20" duration="321.00" routeLength="9993.40" waitSteps="0" timeLoss="17.59" rerouteNo="0" devices="tripinfo_0.18 emissions_0.18" vType="car2" speedFactor="1.00" vaporized="">
        <emissions CO_abs="27427.414759" CO2_abs="1414529.770117" HC_abs="456.389452" PMx_abs="135.946112" NOx_abs="3125.557779" fuel_abs="563.954909" electricity_abs="0"/>
    </tripinfo>
    <tripinfo id="1.21" depart="82.00" departLane="-gneE0_0" departPos="6.60" departSpeed="0.00" departDelay="56.80" arrival="401.00" arrivalLane="-gneE0_0" arrivalPos="10000.00" arrivalSpeed="32.64" duration="319.00" routeLength="9993.40" waitSteps="0" timeLoss="15.95" rerouteNo="0" devices="tripinfo_1.21 emissions_1.21" vType="car2" speedFactor="1.00" vaporized="">
        <emissions CO_abs="26022.856341" CO2_abs="1341452.262072" HC_abs="433.502873" PMx_abs="128.497171" NOx_abs="2963.414661" fuel_abs="534.819819" electricity_abs="0"/>
    </tripinfo>
    <tripinfo id="0.19" depart="82.00" departLane="gneE0_0" departPos="6.60" departSpeed="0.00" departDelay="59.20" arrival="402.00" arrivalLane="gneE0_0" arrivalPos="10000.00" arrivalSpeed="32.74" duration="320.00" routeLength="9993.40" waitSteps="0" timeLoss="16.70" rerouteNo="0" devices="tripinfo_0.19 emissions_0.19" vType="car2" speedFactor="1.00" vaporized="">
        <emissions CO_abs="27851.022508" CO2_abs="1434759.530862" HC_abs="464.285712" PMx_abs="137.933533" NOx_abs="3171.316761" fuel_abs="572.020201" electricity_abs="0"/>
    </tripinfo>
    <tripinfo id="1.22" depart="86.00" departLane="-gneE0_0" departPos="6.60" departSpeed="0.00" departDelay="59.60" arrival="405.00" arrivalLane="-gneE0_0" arrivalPos="10000.00" arrivalSpeed="32.50" duration="319.00" routeLength="9993.40" waitSteps="0" timeLoss="15.15" rerouteNo="0" devices="tripinfo_1.22 emissions_1.22" vType="car2" speedFactor="1.00" vaporized="">
        <emissions CO_abs="27409.034014" CO2_abs="1410332.829982" HC_abs="455.999055" PMx_abs="134.896878" NOx_abs="3116.444012" fuel_abs="562.281630" electricity_abs="0"/>
    </tripinfo>
    <tripinfo id="0.20" depart="86.00" departLane="gneE0_0" departPos="6.60" departSpeed="0.00" departDelay="62.00" arrival="406.00" arrivalLane="gneE0_0" arrivalPos="10000.00" arrivalSpeed="32.94" duration="320.00" routeLength="9993.40" waitSteps="0" timeLoss="16.20" rerouteNo="0" devices="tripinfo_0.20 emissions_0.20" vType="car2" speedFactor="1.00" vaporized="">
        <emissions CO_abs="27781.237771" CO2_abs="1430022.687777" HC_abs="463.303341" PMx_abs="137.761552" NOx_abs="3162.196938" fuel_abs="570.131661" electricity_abs="0"/>
    </tripinfo>
    <tripinfo id="1.23" depart="89.00" departLane="-gneE0_0" departPos="6.60" departSpeed="0.00" departDelay="61.40" arrival="408.00" arrivalLane="-gneE0_0" arrivalPos="10000.00" arrivalSpeed="32.92" duration="319.00" routeLength="9993.40" waitSteps="0" timeLoss="15.54" rerouteNo="0" devices="tripinfo_1.23 emissions_1.23" vType="car2" speedFactor="1.00" vaporized="">
        <emissions CO_abs="27791.490271" CO2_abs="1427483.889360" HC_abs="461.587346" PMx_abs="137.244845" NOx_abs="3156.909160" fuel_abs="569.119556" electricity_abs="0"/>
    </tripinfo>
    <tripinfo id="0.21" depart="90.00" departLane="gneE0_0" departPos="6.60" departSpeed="0.00" departDelay="64.80" arrival="410.00" arrivalLane="gneE0_0" arrivalPos="10000.00" arrivalSpeed="32.76" duration="320.00" routeLength="9993.40" waitSteps="0" timeLoss="16.38" rerouteNo="0" devices="tripinfo_0.21 emissions_0.21" vType="car2" speedFactor="1.00" vaporized="">
        <emissions CO_abs="27279.769945" CO2_abs="1403496.571695" HC_abs="454.053786" PMx_abs="134.983678" NOx_abs="3102.962937" fuel_abs="559.556087" electricity_abs="0"/>
    </tripinfo>
    <tripinfo id="1.24" depart="93.00" departLane="-gneE0_0" departPos="6.60" departSpeed="0.00" departDelay="64.20" arrival="412.00" arrivalLane="-gneE0_0" arrivalPos="10000.00" arrivalSpeed="32.81" duration="319.00" routeLength="9993.40" waitSteps="0" timeLoss="15.45" rerouteNo="0" devices="tripinfo_1.24 emissions_1.24" vType="car2" speedFactor="1.00" vaporized="">
        <emissions CO_abs="27103.602701" CO2_abs="1394455.246667" HC_abs="450.633373" PMx_abs="133.722628" NOx_abs="3082.160939" fuel_abs="555.951451" electricity_abs="0"/>
    </tripinfo>
    <tripinfo id="0.23" depart="98.00" departLane="gneE0_0" departPos="6.60" departSpeed="0.00" departDelay="70.40" arrival="418.00" arrivalLane="gneE0_0" arrivalPos="10000.00" arrivalSpeed="32.32" duration="320.00" routeLength="9993.40" waitSteps="0" timeLoss="16.19" rerouteNo="0" devices="tripinfo_0.23 emissions_0.23" vType="car2" speedFactor="1.00" vaporized="">
        <emissions CO_abs="27521.036412" CO2_abs="1420891.759922" HC_abs="458.335715" PMx_abs="136.018110" NOx_abs="3138.154979" fuel_abs="566.491338" electricity_abs="0"/>
    </tripinfo>
    <tripinfo id="0.25" depart="106.00" departLane="gneE0_0" departPos="6.60" departSpeed="0.00" departDelay="76.00" arrival="427.00" arrivalLane="gneE0_0" arrivalPos="10000.00" arrivalSpeed="32.83" duration="321.00" routeLength="9993.40" waitSteps="0" timeLoss="17.05" rerouteNo="0" devices="tripinfo_0.25 emissions_0.25" vType="car2" speedFactor="1.00" vaporized="">
        <emissions CO_abs="26881.654388" CO2_abs="1383202.067578" HC_abs="450.375609" PMx_abs="134.582039" NOx_abs="3062.498487" fuel_abs="551.464760" electricity_abs="0"/>
    </tripinfo>
    <tripinfo id="1.27" depart="106.00" departLane="-gneE0_0" departPos="6.60" departSpeed="0.00" departDelay="73.60" arrival="427.00" arrivalLane="-gneE0_0" arrivalPos="10000.00" arrivalSpeed="32.40" duration="321.00" routeLength="9993.40" waitSteps="0" timeLoss="17.29" rerouteNo="0" devices="tripinfo_1.27 emissions_1.27" vType="car2" speedFactor="1.00" vaporized="">
        <emissions CO_abs="26625.503789" CO2_abs="1375217.774588" HC_abs="444.995174" PMx_abs="131.641184" NOx_abs="3036.852659" fuel_abs="548.281643" electricity_abs="0"/>
    </tripinfo>
    <tripinfo id="0.26" depart="110.00" departLane="gneE0_0" departPos="6.60" departSpeed="0.00" departDelay="78.80" arrival="428.00" arrivalLane="gneE0_0" arrivalPos="10000.00" arrivalSpeed="32.41" duration="318.00" routeLength="9993.40" waitSteps="0" timeLoss="14.90" rerouteNo="0" devices="tripinfo_0.26 emissions_0.26" vType="car2" speedFactor="1.00" vaporized="">
        <emissions CO_abs="28013.059086" CO2_abs="1437254.454205" HC_abs="466.994998" PMx_abs="138.718079" NOx_abs="3180.980466" fuel_abs="573.014851" electricity_abs="0"/>
    </tripinfo>
    <tripinfo id="0.28" depart="119.00" departLane="gneE0_0" departPos="6.60" departSpeed="0.00" departDelay="85.40" arrival="439.00" arrivalLane="gneE0_0" arrivalPos="10000.00" arrivalSpeed="32.81" duration="320.00" routeLength="9993.40" waitSteps="0" timeLoss="16.39" rerouteNo="0" devices="tripinfo_0.28 emissions_0.28" vType="car2" speedFactor="1.00" vaporized="">
        <emissions CO_abs="27354.866356" CO2_abs="1409643.688831" HC_abs="455.515746" PMx_abs="135.365546" NOx_abs="3115.248585" fuel_abs="562.006864" electricity_abs="0"/>
    </tripinfo>
    <tripinfo id="1.30" depart="119.00" departLane="-gneE0_0" departPos="6.60" departSpeed="0.00" departDelay="83.00" arrival="441.00" arrivalLane="-gneE0_0" arrivalPos="10000.00" arrivalSpeed="32.80" duration="322.00" routeLength="9993.40" waitSteps="0" timeLoss="18.36" rerouteNo="0" devices="tripinfo_1.30 emissions_1.30" vType="car2" speedFactor="1.00" vaporized="">
        <emissions CO_abs="28325.685406" CO2_abs="1468528.465046" HC_abs="472.648264" PMx_abs="140.573884" NOx_abs="3241.144803" fuel_abs="585.483466" electricity_abs="0"/>
    </tripinfo>
    <tripinfo id="0.29" depart="123.00" departLane="gneE0_0" departPos="6.60" departSpeed="0.00" departDelay="88.20" arrival="443.00" arrivalLane="gneE0_1" arrivalPos="10000.00" arrivalSpeed="32.22" duration="320.00" routeLength="9993.40" waitSteps="0" timeLoss="16.87" rerouteNo="0" devices="tripinfo_0.29 emissions_0.29" vType="car2" speedFactor="1.00" vaporized="">