<?xml version="1.0" encoding="UTF-8"?>

<!-- generated on Wed Oct 11 07:11:30 2017 by SUMO Version 0.30.0
<?xml version="1.0" encoding="UTF-8"?>

<configuration xmlns:xsi="http://www.w3.org/2001/XMLSchema-instance" xsi:noNamespaceSchemaLocation="http://sumo.dlr.de/xsd/sumoConfiguration.xsd">

    <input>
        <net-file value="./network/highway.net.xml"/>
        <route-files value="./network/highway.rou.xml"/>
    </input>

    <output>
        <netstate-dump value="./network/../log/sumo/netstate.dump"/>
        <tripinfo-output value="./network/../log/sumo/tripinfo"/>
        <tripinfo-output.write-unfinished value="false"/>
    </output>

    <time>
        <begin value="0"/>
        <end value="840"/>
    </time>

    <emissions>
        <device.emissions.probability value="1"/>
    </emissions>

    <traci_server>
        <remote-port value="5500"/>
    </traci_server>

    <random_number>
        <seed value="14884"/>
    </random_number>

</configuration>
-->

<tripinfos xmlns:xsi="http://www.w3.org/2001/XMLSchema-instance" xsi:noNamespaceSchemaLocation="http://sumo.dlr.de/xsd/tripinfo_file.xsd">
    <tripinfo id="1.0" depart="0.00" departLane="-gneE0_0" departPos="6.60" departSpeed="0.00" departDelay="0.00" arrival="318.00" arrivalLane="-gneE0_0" arrivalPos="10000.00" arrivalSpeed="32.43" duration="318.00" routeLength="9993.40" waitSteps="0" timeLoss="15.02" rerouteNo="0" devices="tripinfo_1.0 emissions_1.0" vType="car2" speedFactor="1.00" vaporized="">
        <emissions CO_abs="27052.888380" CO2_abs="1389958.712713" HC_abs="450.957339" PMx_abs="133.627544" NOx_abs="3074.016395" fuel_abs="554.158670" electricity_abs="0"/>
    </tripinfo>
    <tripinfo id="0.0" depart="0.00" departLane="gneE0_0" departPos="6.60" departSpeed="0.00" departDelay="0.00" arrival="320.00" arrivalLane="gneE0_0" arrivalPos="10000.00" arrivalSpeed="32.75" duration="320.00" routeLength="9993.40" waitSteps="0" timeLoss="16.39" rerouteNo="0" devices="tripinfo_0.0 emissions_0.0" vType="car2" speedFactor="1.00" vaporized="">
        <emissions CO_abs="26350.803282" CO2_abs="1361962.021809" HC_abs="439.528499" PMx_abs="129.828930" NOx_abs="3005.867242" fuel_abs="542.996795" electricity_abs="0"/>
    </tripinfo>
    <tripinfo id="0.1" depart="4.00" departLane="gneE0_0" departPos="6.60" departSpeed="0.00" departDelay="3.20" arrival="323.00" arrivalLane="gneE0_0" arrivalPos="10000.00" arrivalSpeed="32.11" duration="319.00" routeLength="9993.40" waitSteps="0" timeLoss="15.87" rerouteNo="0" devices="tripinfo_0.1 emissions_0.1" vType="car2" speedFactor="1.00" vaporized="">
        <emissions CO_abs="26539.359071" CO2_abs="1367432.091391" HC_abs="443.261590" PMx_abs="131.357838" NOx_abs="3022.339701" fuel_abs="545.177576" electricity_abs="0"/>
    </tripinfo>
    <tripinfo id="1.1" depart="4.00" departLane="-gneE0_0" departPos="6.60" departSpeed="0.00" departDelay="3.20" arrival="323.00" arrivalLane="-gneE0_0" arrivalPos="10000.00" arrivalSpeed="32.16" duration="319.00" routeLength="9993.40" waitSteps="0" timeLoss="15.40" rerouteNo="0" devices="tripinfo_1.1 emissions_1.1" vType="car2" speedFactor="1.00" vaporized="">
        <emissions CO_abs="27306.398690" CO2_abs="1403691.758150" HC_abs="453.778674" PMx_abs="134.869952" NOx_abs="3103.661944" fuel_abs="559.633931" electricity_abs="0"/>
    </tripinfo>
    <tripinfo id="1.2" depart="8.00" departLane="-gneE0_0" departPos="6.60" departSpeed="0.00" departDelay="6.40" arrival="327.00" arrivalLane="-gneE0_0" arrivalPos="10000.00" arrivalSpeed="32.92" duration="319.00" routeLength="9993.40" waitSteps="0" timeLoss="15.24" rerouteNo="0" devices="tripinfo_1.2 emissions_1.2" vType="car2" speedFactor="1.00" vaporized="">
        <emissions CO_abs="28145.182222" CO2_abs="1444785.741754" HC_abs="467.167422" PMx_abs="138.394176" NOx_abs="3194.311845" fuel_abs="576.017599" electricity_abs="0"/>
    </tripinfo>
    <tripinfo id="1.3" depart="12.00" departLane="-gneE0_0" departPos="6.60" departSpeed="0.00" departDelay="9.60" arrival="331.00" arrivalLane="-gneE0_0" arrivalPos="10000.00" arrivalSpeed="32.57" duration="319.00" routeLength="9993.40" waitSteps="0" timeLoss="15.87" rerouteNo="0" devices="tripinfo_1.3 emissions_1.3" vType="car2" speedFactor="1.00" vaporized="">
        <emissions CO_abs="26755.417953" CO2_abs="1377934.563756" HC_abs="445.836141" PMx_abs="132.481999" NOx_abs="3045.966241" fuel_abs="549.364822" electricity_abs="0"/>
    </tripinfo>
    <tripinfo id="0.3" depart="12.00" departLane="gneE0_0" departPos="6.60" departSpeed="0.00" departDelay="9.60" arrival="332.00" arrivalLane="gneE0_0" arrivalPos="10000.00" arrivalSpeed="32.72" duration="320.00" routeLength="9993.40" waitSteps="0" timeLoss="16.79" rerouteNo="0" devices="tripinfo_0.3 emissions_0.3" vType="car2" speedFactor="1.00" vaporized="">
        <emissions CO_abs="26938.024714" CO2_abs="1389831.191932" HC_abs="449.566804" PMx_abs="133.388635" NOx_abs="3070.587172" fuel_abs="554.107841" electricity_abs="0"/>
    </tripinfo>
    <tripinfo id="1.4" depart="16.00" departLane="-gneE0_0" departPos="6.60" departSpeed="0.00" departDelay="12.80" arrival="335.00" arrivalLane="-gneE0_0" arrivalPos="10000.00" arrivalSpeed="32.25" duration="319.00" routeLength="9993.40" waitSteps="0" timeLoss="15.90" rerouteNo="0" devices="tripinfo_1.4 emissions_1.4" vType="car2" speedFactor="1.00" vaporized="">
        <emissions CO_abs="26894.013362" CO2_abs="1385462.115069" HC_abs="447.103062" PMx_abs="133.054606" NOx_abs="3062.050438" fuel_abs="552.366013" electricity_abs="0"/>
    </tripinfo>
    <tripinfo id="0.5" depart="19.00" departLane="gneE0_0" departPos="6.60" departSpeed="0.00" departDelay="15.00" arrival="339.00" arrivalLane="gneE0_0" arrivalPos="10000.00" arrivalSpeed="32.52" duration="320.00" routeLength="9993.40" waitSteps="0" timeLoss="16.05" rerouteNo="0" devices="tripinfo_0.5 emissions_0.5" vType="car2" speedFactor="1.00" vaporized="">
        <emissions CO_abs="27798.427526" CO2_abs="1431305.968726" HC_abs="462.185700" PMx_abs="137.178023" NOx_abs="3163.074569" fuel_abs="570.643368" electricity_abs="0"/>
    </tripinfo>
    <tripinfo id="1.5" depart="20.00" departLane="-gneE0_0" departPos="6.60" departSpeed="0.00" departDelay="16.00" arrival="339.00" arrivalLane="-gneE0_0" arrivalPos="10000.00" arrivalSpeed="32.76" duration="319.00" routeLength="9993.40" waitSteps="0" timeLoss="15.93" rerouteNo="0" devices="tripinfo_1.5 emissions_1.5" vType="car2" speedFactor="1.00" vaporized="">
        <emissions CO_abs="26730.778213" CO2_abs="1376466.784140" HC_abs="444.454044" PMx_abs="131.924786" NOx_abs="3041.503989" fuel_abs="548.779691" electricity_abs="0"/>
    </tripinfo>
    <tripinfo id="0.6" depart="23.00" departLane="gneE0_0" departPos="6.60" departSpeed="0.00" departDelay="18.20" arrival="342.00" arrivalLane="gneE0_0" arrivalPos="10000.00" arrivalSpeed="32.51" duration="319.00" routeLength="9993.40" waitSteps="0" timeLoss="15.15" rerouteNo="0" devices="tripinfo_0.6 emissions_0.6" vType="car2" speedFactor="1.00" vaporized="">
        <emissions CO_abs="27348.676238" CO2_abs="1405792.754346" HC_abs="455.288180" PMx_abs="135.074276" NOx_abs="3108.643539" fuel_abs="560.471529" electricity_abs="0"/>
    </tripinfo>
    <tripinfo id="0.7" depart="26.00" departLane="gneE0_0" departPos="6.60" departSpeed="0.00" departDelay="20.40" arrival="346.00" arrivalLane="gneE0_0" arrivalPos="10000.00" arrivalSpeed="32.57" duration="320.00" routeLength="9993.40" waitSteps="1" timeLoss="16.43" rerouteNo="0" devices="tripinfo_0.7 emissions_0.7" vType="car2" speedFactor="1.00" vaporized="">
        <emissions CO_abs="26301.218891" CO2_abs="1358245.986557" HC_abs="438.758998" PMx_abs="130.224589" NOx_abs="3000.021596" fuel_abs="541.515241" electricity_abs="0"/>
    </tripinfo>
    <tripinfo id="0.8" depart="30.00" departLane="gneE0_0" departPos="6.60" departSpeed="0.00" departDelay="23.60" arrival="350.00" arrivalLane="gneE0_0" arrivalPos="10000.00" arrivalSpeed="32.65" duration="320.00" routeLength="9993.40" waitSteps="0" timeLoss="16.03" rerouteNo="0" devices="tripinfo_0.8 emissions_0.8" vType="car2" speedFactor="1.00" vaporized="">
        <emissions CO_abs="27484.516484" CO2_abs="1413894.208408" HC_abs="458.805962" PMx_abs="135.958116" NOx_abs="3126.276875" fuel_abs="563.701424" electricity_abs="0"/>
    </tripinfo>
    <tripinfo id="1.8" depart="31.00" departLane="-gneE0_0" departPos="6.60" departSpeed="0.00" departDelay="24.60" arrival="350.00" arrivalLane="-gneE0_0" arrivalPos="10000.00" arrivalSpeed="32.17" duration="319.00" routeLength="9993.40" waitSteps="0" timeLoss="15.65" rerouteNo="0" devices="tripinfo_1.8 emissions_1.8" vType="car2" speedFactor="1.00" vaporized="">
        <emissions CO_abs="26582.460496" CO2_abs="1368430.584005" HC_abs="444.169025" PMx_abs="131.819751" NOx_abs="3026.001965" fuel_abs="545.575641" electricity_abs="0"/>
    </tripinfo>
    <tripinfo id="0.9" depart="34.00" departLane="gneE0_0" departPos="6.60" departSpeed="0.00" departDelay="26.80" arrival="353.00" arrivalLane="gneE0_0" arrivalPos="10000.00" arrivalSpeed="32.34" duration="319.00" routeLength="9993.40" waitSteps="0" timeLoss="15.32" rerouteNo="0" devices="tripinfo_0.9 emissions_0.9" vType="car2" speedFactor="1.00" vaporized="">
        <emissions CO_abs="26732.326059" CO2_abs="1378052.625865" HC_abs="444.806334" PMx_abs="132.053252" NOx_abs="3044.822559" fuel_abs="549.411929" electricity_abs="0"/>
    </tripinfo>
    <tripinfo id="0.10" depart="37.00" departLane="gneE0_0" departPos="6.60" departSpeed="0.00" departDelay="29.00" arrival="356.00" arrivalLane="gneE0_0" arrivalPos="10000.00" arrivalSpeed="32.22" duration="319.00" routeLength="9993.40" waitSteps="0" timeLoss="15.73" rerouteNo="0" devices="tripinfo_0.10 emissions_0.10" vType="car2" speedFactor="1.00" vaporized="">
        <emissions CO_abs="28129.825261" CO2_abs="1442624.065372" HC_abs="466.630484" PMx_abs="139.229880" NOx_abs="3192.559305" fuel_abs="575.155760" electricity_abs="0"/>
    </tripinfo>
    <tripinfo id="0.2" depart="8.00" departLane="gneE0_0" departPos="6.60" departSpeed="0.00" departDelay="6.40" arrival="357.00" arrivalLane="gneE0_0" arrivalPos="10000.00" arrivalSpeed="29.91" duration="349.00" routeLength="9993.40" waitSteps="0" timeLoss="15.56" rerouteNo="0" devices="tripinfo_0.2 emissions_0.2" vType="car1" speedFactor="1.00" vaporized="">
        <emissions CO_abs="21428.216121" CO2_abs="1245212.448575" HC_abs="380.431511" PMx_abs="117.186671" NOx_abs="2695.047107" fuel_abs="496.449761" electricity_abs="0"/>
    </tripinfo>
    <tripinfo id="1.10" depart="38.00" departLane="-gneE0_0" departPos="6.60" departSpeed="0.00" departDelay="30.00" arrival="358.00" arrivalLane="-gneE0_0" arrivalPos="10000.00" arrivalSpeed="32.38" duration="320.00" routeLength="9993.40" waitSteps="0" timeLoss="16.16" rerouteNo="0" devices="tripinfo_1.10 emissions_1.10" vType="car2" speedFactor="1.00" vaporized="">
        <emissions CO_abs="27856.264504" CO2_abs="1432974.883475" HC_abs="465.017567" PMx_abs="137.699432" NOx_abs="3168.353419" fuel_abs="571.308643" electricity_abs="0"/>
    </tripinfo>
    <tripinfo id="0.11" depart="42.00" departLane="gneE0_0" departPos="6.60" departSpeed="0.00" departDelay="33.20" arrival="361.00" arrivalLane="gneE0_0" arrivalPos="10000.00" arrivalSpeed="32.27" duration="319.00" routeLength="9993.40" waitSteps="0" timeLoss="15.64" rerouteNo="0" devices="tripinfo_0.11 emissions_0.11" vType="car2" speedFactor="1.00" vaporized="">
        <emissions CO_abs="26728.615628" CO2_abs="1375229.653231" HC_abs="446.283601" PMx_abs="132.618285" NOx_abs="3041.708066" fuel_abs="548.286352" electricity_abs="0"/>
    </tripinfo>
    <tripinfo id="1.11" depart="42.00" departLane="-gneE0_0" departPos="6.60" departSpeed="0.00" departDelay="33.20" arrival="362.00" arrivalLane="-gneE0_0" arrivalPos="10000.00" arrivalSpeed="32.89" duration="320.00" routeLength="9993.40" waitSteps="0" timeLoss="16.12" rerouteNo="0" devices="tripinfo_1.11 emissions_1.11" vType="car2" speedFactor="1.00" vaporized="">
        <emissions CO_abs="27899.963503" CO2_abs="1435119.355283" HC_abs="463.803498" PMx_abs="138.199500" NOx_abs="3173.617797" fuel_abs="572.163703" electricity_abs="0"/>
    </tripinfo>
    <tripinfo id="0.4" depart="16.00" departLane="gneE0_0" departPos="6.60" departSpeed="0.00" departDelay="12.80" arrival="364.00" arrivalLane="gneE0_0" arrivalPos="10000.00" arrivalSpeed="29.53" duration="348.00" routeLength="9993.40" waitSteps="0" timeLoss="14.30" rerouteNo="0" devices="tripinfo_0.4 emissions_0.4" vType="car1" speedFactor="1.00" vaporized="">
        <emissions CO_abs="23036.218315" CO2_abs="1347428.353608" HC_abs="406.777969" PMx_abs="125.592094" NOx_abs="2910.755076" fuel_abs="537.202043" electricity_abs="0"/>
    </tripinfo>
    <tripinfo id="1.12" depart="46.00" departLane="-gneE0_0" departPos="6.60" departSpeed="0.00" departDelay="36.40" arrival="366.00" arrivalLane="-gneE0_0" arrivalPos="10000.00" arrivalSpeed="32.43" duration="320.00" routeLength="9993.40" waitSteps="0" timeLoss="16.42" rerouteNo="0" devices="tripinfo_1.12 emissions_1.12" vType="car2" speedFactor="1.00" vaporized="">
        <emissions CO_abs="28209.692173" CO2_abs="1452388.982937" HC_abs="468.917287" PMx_abs="139.324023" NOx_abs="3209.872922" fuel_abs="579.048900" electricity_abs="0"/>
    </tripinfo>
    <tripinfo id="1.13" depart="50.00" departLane="-gneE0_0" departPos="6.60" departSpeed="0.00" departDelay="39.60" arrival="370.00" arrivalLane="-gneE0_0" arrivalPos="10000.00" arrivalSpeed="32.25" duration="320.00" routeLength="9993.40" waitSteps="0" timeLoss="16.10" rerouteNo="0" devices="tripinfo_1.13 emissions_1.13" vType="car2" speedFactor="1.00" vaporized="">
        <emissions CO_abs="27297.650916" CO2_abs="1404425.510052" HC_abs="455.491784" PMx_abs="135.741862" NOx_abs="3107.038922" fuel_abs="559.926373" electricity_abs="0"/>
    </tripinfo>
    <tripinfo id="0.13" depart="51.00" departLane="gneE0_0" departPos="6.60" departSpeed="0.00" departDelay="40.60" arrival="371.00" arrivalLane="gneE0_0" arrivalPos="10000.00" arrivalSpeed="32.17" duration="320.00" routeLength="9993.40" waitSteps="0" timeLoss="16.93" rerouteNo="0" devices="tripinfo_0.13 emissions_0.13" vType="car2" speedFactor="1.00" vaporized="">
        <emissions CO_abs="26391.029900" CO2_abs="1363127.242773" HC_abs="439.428461" PMx_abs="130.138386" NOx_abs="3009.269929" fuel_abs="543.461382" electricity_abs="0"/>
    </tripinfo>
    <tripinfo id="1.6" depart="24.00" departLane="-gneE0_0" departPos="6.60" departSpeed="0.00" departDelay="19.20" arrival="372.00" arrivalLane="-gneE0_0" arrivalPos="10000.00" arrivalSpeed="29.26" duration="348.00" routeLength="9993.40" waitSteps="0" timeLoss="14.53" rerouteNo="0" devices="tripinfo_1.6 emissions_1.6" vType="car1" speedFactor="1.00" vaporized="">
        <emissions CO_abs="21977.833623" CO2_abs="1281814.858046" HC_abs="389.504913" PMx_abs="119.881803" NOx_abs="2771.173002" fuel_abs="511.042715" electricity_abs="0"/>
    </tripinfo>
    <tripinfo id="1.14" depart="53.00" departLane="-gneE0_0" departPos="6.60" departSpeed="0.00" departDelay="41.80" arrival="374.00" arrivalLane="-gneE0_1" arrivalPos="10000.00" arrivalSpeed="33.00" duration="321.00" routeLength="9993.40" waitSteps="0" timeLoss="17.33" rerouteNo="0" devices="tripinfo_1.14 emissions_1.14" vType="car2" speedFactor="1.00" vaporized="">
        <emissions CO_abs="27799.477350" CO2_abs="1433989.831924" HC_abs="462.702084" PMx_abs="137.451377" NOx_abs="3167.608291" fuel_abs="571.713386" electricity_abs="0"/>
    </tripinfo>
    <tripinfo id="0.14" depart="55.00" departLane="gneE0_0" departPos="6.60" departSpeed="0.00" departDelay="43.80" arrival="375.00" arrivalLane="gneE0_0" arrivalPos="10000.00" arrivalSpeed="32.28" duration="320.00" routeLength="9993.40" waitSteps="0" timeLoss="16.37" rerouteNo="0" devices="tripinfo_0.14 emissions_0.14" vType="car2" speedFactor="1.00" vaporized="">
        <emissions CO_abs="27407.323856" CO2_abs="1415432.691410" HC_abs="455.734575" PMx_abs="135.300591" NOx_abs="3125.449779" fuel_abs="564.314917" electricity_abs="0"/>
    </tripinfo>
    <tripinfo id="1.7" depart="27.00" departLane="-gneE0_0" departPos="6.60" departSpeed="0.00" departDelay="21.40" arrival="376.00" arrivalLane="-gneE0_0" arrivalPos="10000.00" arrivalSpeed="29.08" duration="349.00" routeLength="9993.40" waitSteps="0" timeLoss="15.32" rerouteNo="0" devices="tripinfo_1.7 emissions_1.7" vType="car1" speedFactor="1.00" vaporized="">
        <emissions CO_abs="22555.022164" CO2_abs="1313248.252435" HC_abs="399.802337" PMx_abs="122.964145" NOx_abs="2840.096073" fuel_abs="523.574784" electricity_abs="0"/>
    </tripinfo>
    <tripinfo id="0.15" depart="59.00" departLane="gneE0_0" departPos="6.60" departSpeed="0.00" departDelay="47.00" arrival="378.00" arrivalLane="gneE0_0" arrivalPos="10000.00" arrivalSpeed="32.24" duration="319.00" routeLength="9993.40" waitSteps="0" timeLoss="15.88" rerouteNo="0" devices="tripinfo_0.15 emissions_0.15" vType="car2" speedFactor="1.00" vaporized="">
        <emissions CO_abs="28310.181787" CO2_abs="1452812.353888" HC_abs="472.533723" PMx_abs="140.297919" NOx_abs="3215.211539" fuel_abs="579.217564" electricity_abs="0"/>
    </tripinfo>
    <tripinfo id="0.16" depart="63.00" departLane="gneE0_0" departPos="6.60" departSpeed="0.00" departDelay="50.20" arrival="382.00" arrivalLane="gneE0_0" arrivalPos="10000.00" arrivalSpeed="32.90" duration="319.00" routeLength="9993.40" waitSteps="0" timeLoss="15.66" rerouteNo="0" devices="tripinfo_0.16 emissions_0.16" vType="car2" speedFactor="1.00" vaporized="">
        <emissions CO_abs="26836.782850" CO2_abs="1379040.698596" HC_abs="447.515899" PMx_abs="133.213028" NOx_abs="3051.262392" fuel_abs="549.805785" electricity_abs="0"/>
    </tripinfo>
    <tripinfo id="1.16" depart="63.00" departLane="-gneE0_0" departPos="6.60" departSpeed="0.00" departDelay="50.20" arrival="383.00" arrivalLane="-gneE0_1" arrivalPos="10000.00" arrivalSpeed="32.82" duration="320.00" routeLength="9993.40" waitSteps="0" timeLoss="16.79" rerouteNo="0" devices="tripinfo_1.16 emissions_1.16" vType="car2" speedFactor="1.00" vaporized="">
        <emissions CO_abs="27261.674668" CO2_abs="1404246.449112" HC_abs="454.285641" PMx_abs="135.082956" NOx_abs="3104.035443" fuel_abs="559.855036" electricity_abs="0"/>
    </tripinfo>
    <tripinfo id="1.9" depart="34.00" departLane="-gneE0_0" departPos="6.60" departSpeed="0.00" departDelay="26.80" arrival="383.00" arrivalLane="-gneE0_0" arrivalPos="10000.00" arrivalSpeed="29.87" duration="349.00" routeLength="9993.40" waitSteps="0" timeLoss="15.49" rerouteNo="0" devices="tripinfo_1.9 emissions_1.9" vType="car1" speedFactor="1.00" vaporized="">
        <emissions CO_abs="23100.389661" CO2_abs="1349320.040984" HC_abs="409.372815" PMx_abs="125.542019" NOx_abs="2914.643122" fuel_abs="537.956168" electricity_abs="0"/>
    </tripinfo>
    <tripinfo id="0.17" depart="67.00" departLane="gneE0_0" departPos="6.60" departSpeed="0.00" departDelay="53.40" arrival="386.00" arrivalLane="gneE0_0" arrivalPos="10000.00" arrivalSpeed="32.76" duration="319.00" routeLength="9993.40" waitSteps="0" timeLoss="15.13" rerouteNo="0" devices="tripinfo_0.17 emissions_0.17" vType="car2" speedFactor="1.00" vaporized="">
        <emissions CO_abs="27786.409248" CO2_abs="1426823.246612" HC_abs="461.450825" PMx_abs="137.410348" NOx_abs="3156.415930" fuel_abs="568.856158" electricity_abs="0"/>
    </tripinfo>
    <tripinfo id="1.17" depart="67.00" departLane="-gneE0_0" departPos="6.60" departSpeed="0.00" departDelay="53.40" arrival="387.00" arrivalLane="-gneE0_0" arrivalPos="10000.00" arrivalSpeed="32.84" duration="320.00" routeLength="9993.40" waitSteps="0" timeLoss="16.25" rerouteNo="0" devices="tripinfo_1.17 emissions_1.17" vType="car2" speedFactor="1.00" vaporized="">
        <emissions CO_abs="27224.222085" CO2_abs="1401558.289190" HC_abs="453.567397" PMx_abs="134.582354" NOx_abs="3097.911888" fuel_abs="558.783303" electricity_abs="0"/>
    </tripinfo>
    <tripinfo id="1.18" depart="71.00" departLane="-gneE0_0" departPos="6.60" departSpeed="0.00" departDelay="56.60" arrival="390.00" arrivalLane="-gneE0_0" arrivalPos="10000.00" arrivalSpeed="32.27" duration="319.00" routeLength="9993.40" waitSteps="0" timeLoss="15.65" rerouteNo="0" devices="tripinfo_1.18 emissions_1.18" vType="car2" speedFactor="1.00" vaporized="">
        <emissions CO_abs="27690.045973" CO2_abs="1424916.693180" HC_abs="461.696203" PMx_abs="136.789352" NOx_abs="3150.004895" fuel_abs="568.095974" electricity_abs="0"/>
    </tripinfo>
    <tripinfo id="0.18" depart="71.00" departLane="gneE0_0" departPos="6.60" departSpeed="0.00" departDelay="56.60" arrival="392.00" arrivalLane="gneE0_0" arrivalPos="10000.00" arrivalSpeed="32.44" duration="321.00" routeLength="9993.40" waitSteps="0" timeLoss="17.64" rerouteNo="0" devices="tripinfo_0.18 emissions_0.18" vType="car2" speedFactor="1.00" vaporized="">
        <emissions CO_abs="26252.030693" CO2_abs="1357319.410065" HC_abs="439.283344" PMx_abs="130.310302" NOx_abs="2997.579999" fuel_abs="541.145773" electricity_abs="0"/>
    </tripinfo>
    <tripinfo id="1.19" depart="75.00" departLane="-gneE0_0" departPos="6.60" departSpeed="0.00" departDelay="59.80" arrival="394.00" arrivalLane="-gneE0_0" arrivalPos="10000.00" arrivalSpeed="32.51" duration="319.00" routeLength="9993.40" waitSteps="0" timeLoss="15.56" rerouteNo="0" devices="tripinfo_1.19 emissions_1.19" vType="car2" speedFactor="1.00" vaporized="">
        <emissions CO_abs="28044.012370" CO2_abs="1439928.609868" HC_abs="465.757124" PMx_abs="138.546430" NOx_abs="3185.018036" fuel_abs="574.081102" electricity_abs="0"/>
    </tripinfo>
    <tripinfo id="0.19" depart="75.00" departLane="gneE0_0" departPos="6.60" departSpeed="0.00" departDelay="59.80" arrival="395.00" arrivalLane="gneE0_0" arrivalPos="10000.00" arrivalSpeed="32.80" duration="320.00" routeLength="9993.40" waitSteps="0" timeLoss="16.81" rerouteNo="0" devices="tripinfo_0.19 emissions_0.19" vType="car2" speedFactor="1.00" vaporized="">
        <emissions CO_abs="26818.061467" CO2_abs="1384520.753585" HC_abs="447.388126" PMx_abs="132.807548" NOx_abs="3058.313705" fuel_abs="551.990650" electricity_abs="0"/>
    </tripinfo>
    <tripinfo id="0.20" depart="79.00" departLane="gneE0_0" departPos="6.60" departSpeed="0.00" departDelay="63.00" arrival="398.00" arrivalLane="gneE0_0" arrivalPos="10000.00" arrivalSpeed="32.16" duration="319.00" routeLength="9993.40" waitSteps="0" timeLoss="15.71" rerouteNo="0" devices="tripinfo_0.20 emissions_0.20" vType="car2" speedFactor="1.00" vaporized="">
        <emissions CO_abs="26763.086428" CO2_abs="1376252.744819" HC_abs="446.398352" PMx_abs="132.759139" NOx_abs="3044.227828" fuel_abs="548.694266" electricity_abs="0"/>
    </tripinfo>
    <tripinfo id="1.20" depart="79.00" departLane="-gneE0_0" departPos="6.60" departSpeed="0.00" departDelay="63.00" arrival="399.00" arrivalLane="-gneE0_0" arrivalPos="10000.00" arrivalSpeed="32.37" duration="320.00" routeLength="9993.40" waitSteps="0" timeLoss="16.05" rerouteNo="0" devices="tripinfo_1.20 emissions_1.20" vType="car2" speedFactor="1.00" vaporized="">
        <emissions CO_abs="26496.988786" CO2_abs="1362319.770178" HC_abs="443.236740" PMx_abs="131.495119" NOx_abs="3013.726738" fuel_abs="543.139307" electricity_abs="0"/>
    </tripinfo>
    <tripinfo id="0.21" depart="83.00" departLane="gneE0_0" departPos="6.60" departSpeed="0.00" departDelay="66.20" arrival="402.00" arrivalLane="gneE0_0" arrivalPos="10000.00" arrivalSpeed="32.23" duration="319.00" routeLength="9993.40" waitSteps="0" timeLoss="15.25" rerouteNo="0" devices="tripinfo_0.21 emissions_0.21" vType="car2" speedFactor="1.00" vaporized="">
        <emissions CO_abs="27484.121941" CO2_abs="1411124.618848" HC_abs="457.040879" PMx_abs="136.518550" NOx_abs="3123.321030" fuel_abs="562.597278" electricity_abs="0"/>
    </tripinfo>
    <tripinfo id="1.21" depart="83.00" departLane="-gneE0_0" departPos="6.60" departSpeed="0.00" departDelay="66.20" arrival="402.00" arrivalLane="-gneE0_0" arrivalPos="10000.00" arrivalSpeed="32.99" duration="319.00" routeLength="9993.40" waitSteps="0" timeLoss="15.88" rerouteNo="0" devices="tripinfo_1.21 emissions_1.21" vType="car2" speedFactor="1.00" vaporized="">
        <emissions CO_abs="27059.457128" CO2_abs="1394592.803126" HC_abs="450.962459" PMx_abs="133.863307" NOx_abs="3081.979481" fuel_abs="556.006250" electricity_abs="0"/>
    </tripinfo>
    <tripinfo id="1.22" depart="87.00" departLane="-gneE0_0" departPos="6.60" departSpeed="0.00" departDelay="69.40" arrival="406.00" arrivalLane="-gneE0_0" arrivalPos="10000.00" arrivalSpeed="32.64" duration="319.00" routeLength="9993.40" waitSteps="0" timeLoss="15.56" rerouteNo="0" devices="tripinfo_1.22 emissions_1.22" vType="car2" speedFactor="1.00" vaporized="">
        <emissions CO_abs="27430.879543" CO2_abs="1411492.559244" HC_abs="456.393097" PMx_abs="136.069020" NOx_abs="3121.760467" fuel_abs="562.743980" electricity_abs="0"/>
    </tripinfo>
    <tripinfo id="0.23" depart="90.00" departLane="gneE0_0" departPos="6.60" departSpeed="0.00" departDelay="71.60" arrival="410.00" arrivalLane="gneE0_0" arrivalPos="10000.00" arrivalSpeed="32.33" duration="320.00" routeLength="9993.40" waitSteps="0" timeLoss="16.62" rerouteNo="0" devices="tripinfo_0.23 emissions_0.23" vType="car2" speedFactor="1.00" vaporized="">
        <emissions CO_abs="26067.454084" CO2_abs="1339251.828144" HC_abs="436.830743" PMx_abs="130.179337" NOx_abs="2965.268968" fuel_abs="533.942365" electricity_abs="0"/>
    </tripinfo>
    <tripinfo id="1.23" depart="91.00" departLane="-gneE0_0" departPos="6.60" departSpeed="0.00" departDelay="72.60" arrival="410.00" arrivalLane="-gneE0_0" arrivalPos="10000.00" arrivalSpeed="32.96" duration="319.00" routeLength="9993.40" waitSteps="0" timeLoss="15.81" rerouteNo="0" devices="tripinfo_1.23 emissions_1.23" vType="car2" speedFactor="1.00" vaporized="">
        <emissions CO_abs="27941.883190" CO2_abs="1435575.903364" HC_abs="465.166985" PMx_abs="138.002357" NOx_abs="3174.731587" fuel_abs="572.345688" electricity_abs="0"/>
    </tripinfo>
    <tripinfo id="1.24" depart="95.00" departLane="-gneE0_0" departPos="6.60" departSpeed="0.00" departDelay="75.80" arrival="414.00" arrivalLane="-gneE0_0" arrivalPos="10000.00" arrivalSpeed="32.15" duration="319.00" routeLength="9993.40" waitSteps="0" timeLoss="15.72" rerouteNo="0" devices="tripinfo_1.24 emissions_1.24" vType="car2" speedFactor="1.00" vaporized="">
        <emissions CO_abs="27856.038577" CO2_abs="1430783.621949" HC_abs="463.170761" PMx_abs="138.088810" NOx_abs="3165.698242" fuel_abs="570.435082" electricity_abs="0"/>
    </tripinfo>
    <tripinfo id="1.25" depart="99.00" departLane="-gneE0_0" departPos="6.60" departSpeed="0.00" departDelay="79.00" arrival="418.00" arrivalLane="-gneE0_0" arrivalPos="10000.00" arrivalSpeed="32.15" duration="319.00" routeLength="9993.40" waitSteps="0" timeLoss="15.72" rerouteNo="0" devices="tripinfo_1.25 emissions_1.25" vType="car2" speedFactor="1.00" vaporized="">
        <emissions CO_abs="28054.403314" CO2_abs="1443233.818611" HC_abs="467.194444" PMx_abs="138.810605" NOx_abs="3191.299625" fuel_abs="575.398797" electricity_abs="0"/>
    </tripinfo>
    <tripinfo id="0.25" depart="102.00" departLane="gneE0_0" departPos="6.60" departSpeed="0.00" departDelay="82.00" arrival="423.00" arrivalLane="gneE0_0" arrivalPos="10000.00" arrivalSpeed="32.50" duration="321.00" routeLength="9993.40" waitSteps="0" timeLoss="17.98" rerouteNo="0" devices="tripinfo_0.25 emissions_0.25" vType="car2" speedFactor="1.00" vaporized="">
        <emissions CO_abs="27181.981917" CO2_abs="1408849.246416" HC_abs="454.313795" PMx_abs="134.999325" NOx_abs="3109.666902" fuel_abs="561.690094" electricity_abs="0"/>
    </tripinfo>
    <tripinfo id="1.27" depart="107.00" departLane="-gneE0_0" departPos="6.60" departSpeed="0.00" departDelay="85.40" arrival="426.00" arrivalLane="-gneE0_0" arrivalPos="10000.00" arrivalSpeed="32.26" duration="319.00" routeLength="9993.40" waitSteps="0" timeLoss="15.22" rerouteNo="0" devices="tripinfo_1.27 emissions_1.27" vType="car2" speedFactor="1.00" vaporized="">
        <emissions CO_abs="27649.849461" CO2_abs="1420562.763515" HC_abs="459.913411" PMx_abs="137.327804" NOx_abs="3143.725271" fuel_abs="566.360143" electricity_abs="0"/>
    </tripinfo>
    <tripinfo id="0.22" depart="87.00" departLane="gneE0_0" departPos="6.60" departSpeed="0.00" departDelay="69.40" arrival="436.00" arrivalLane="gneE0_0" arrivalPos="10000.00" arrivalSpeed="30.00" duration="349.00" routeLength="9993.40" waitSteps="0" timeLoss="15.08" rerouteNo="0" devices="tripinfo_0.22 emissions_0.22" vType="car1" speedFactor="1.00" vaporized="">
        <emissions CO_abs="22885.087466" CO2_abs="1338154.780941" HC_abs="404.760270" PMx_abs="124.913493" NOx_abs="2891.135287" fuel_abs="533.504760" electricity_abs="0"/>
    </tripinfo>
    <tripinfo id="0.28" depart="116.00" departLane="gneE0_0" departPos="6.60" departSpeed="0.00" departDelay="93.60" arrival="437.00" arrivalLane="gneE0_1" arrivalPos="10000.00" arrivalSpeed="32.20" duration="321.00" routeLength="9993.40" waitSteps="0" timeLoss="17.46" rerouteNo="0" devices="tripinfo_0.28 emissions_0.28" vType="car2" speedFactor="1.00" vaporized="">
        <emissions CO_abs="27250.245038" CO2_abs="1404379.529934" HC_abs="454.630112" PMx_abs="135.447664" NOx_abs="3104.748496" fuel_abs="559.908070" electricity_abs="0"/>
    </tripinfo>
    <tripinfo id="1.30" depart="120.00" departLane="-gneE0_0" departPos="6.60" departSpeed="0.00" departDelay="96.00" arrival="440.00" arrivalLane="-gneE0_0" arrivalPos="10000.00" arrivalSpeed="32.88" duration="320.00" routeLength="9993.40" waitSteps="0" timeLoss="16.09" rerouteNo="0" devices="tripinfo_1.30 emissions_1.30" vType="car2" speedFactor="1.00" vaporized="">