<?xml version="1.0" encoding="UTF-8"?>

<!-- generated on Wed Oct 11 07:06:51 2017 by SUMO Version 0.30.0
<?xml version="1.0" encoding="UTF-8"?>

<configuration xmlns:xsi="http://www.w3.org/2001/XMLSchema-instance" xsi:noNamespaceSchemaLocation="http://sumo.dlr.de/xsd/sumoConfiguration.xsd">

    <input>
        <net-file value="./network/highway.net.xml"/>
        <route-files value="./network/highway.rou.xml"/>
    </input>

    <output>
        <netstate-dump value="./network/../log/sumo/netstate.dump"/>
        <tripinfo-output value="./network/../log/sumo/tripinfo"/>
        <tripinfo-output.write-unfinished value="false"/>
    </output>

    <time>
        <begin value="0"/>
        <end value="840"/>
    </time>

    <emissions>
        <device.emissions.probability value="1"/>
    </emissions>

    <traci_server>
        <remote-port value="5500"/>
    </traci_server>

    <random_number>
        <seed value="14884"/>
    </random_number>

</configuration>
-->

<tripinfos xmlns:xsi="http://www.w3.org/2001/XMLSchema-instance" xsi:noNamespaceSchemaLocation="http://sumo.dlr.de/xsd/tripinfo_file.xsd">
    <tripinfo id="1.0" depart="0.00" departLane="-gneE0_0" departPos="6.60" departSpeed="0.00" departDelay="0.00" arrival="319.00" arrivalLane="-gneE0_0" arrivalPos="10000.00" arrivalSpeed="32.51" duration="319.00" routeLength="9993.40" waitSteps="0" timeLoss="15.24" rerouteNo="0" devices="tripinfo_1.0 emissions_1.0" vType="car2" speedFactor="1.00" vaporized="">
        <emissions CO_abs="27684.515747" CO2_abs="1423343.021741" HC_abs="460.544020" PMx_abs="136.498852" NOx_abs="3146.643210" fuel_abs="567.468617" electricity_abs="0"/>
    </tripinfo>
    <tripinfo id="0.0" depart="0.00" departLane="gneE0_0" departPos="6.60" departSpeed="0.00" departDelay="0.00" arrival="320.00" arrivalLane="gneE0_0" arrivalPos="10000.00" arrivalSpeed="32.25" duration="320.00" routeLength="9993.40" waitSteps="0" timeLoss="16.54" rerouteNo="0" devices="tripinfo_0.0 emissions_0.0" vType="car2" speedFactor="1.00" vaporized="">
        <emissions CO_abs="28041.713087" CO2_abs="1447490.616376" HC_abs="467.263930" PMx_abs="138.096745" NOx_abs="3195.805720" fuel_abs="577.095958" electricity_abs="0"/>
    </tripinfo>
    <tripinfo id="0.1" depart="4.00" departLane="gneE0_0" departPos="6.60" departSpeed="0.00" departDelay="1.60" arrival="323.00" arrivalLane="gneE0_0" arrivalPos="10000.00" arrivalSpeed="32.18" duration="319.00" routeLength="9993.40" waitSteps="0" timeLoss="15.65" rerouteNo="0" devices="tripinfo_0.1 emissions_0.1" vType="car2" speedFactor="1.00" vaporized="">
        <emissions CO_abs="26228.053087" CO2_abs="1352841.365392" HC_abs="436.994209" PMx_abs="129.237147" NOx_abs="2987.598516" fuel_abs="539.360510" electricity_abs="0"/>
    </tripinfo>
    <tripinfo id="1.1" depart="4.00" departLane="-gneE0_0" departPos="6.60" departSpeed="0.00" departDelay="1.60" arrival="323.00" arrivalLane="-gneE0_0" arrivalPos="10000.00" arrivalSpeed="32.79" duration="319.00" routeLength="9993.40" waitSteps="0" timeLoss="15.48" rerouteNo="0" devices="tripinfo_1.1 emissions_1.1" vType="car2" speedFactor="1.00" vaporized="">
        <emissions CO_abs="27370.978956" CO2_abs="1407175.222545" HC_abs="455.102063" PMx_abs="135.253893" NOx_abs="3111.461668" fuel_abs="561.022732" electricity_abs="0"/>
    </tripinfo>
    <tripinfo id="1.2" depart="8.00" departLane="-gneE0_0" departPos="6.60" departSpeed="0.00" departDelay="3.20" arrival="327.00" arrivalLane="-gneE0_0" arrivalPos="10000.00" arrivalSpeed="32.26" duration="319.00" routeLength="9993.40" waitSteps="0" timeLoss="15.34" rerouteNo="0" devices="tripinfo_1.2 emissions_1.2" vType="car2" speedFactor="1.00" vaporized="">
        <emissions CO_abs="26227.671145" CO2_abs="1347211.933339" HC_abs="436.944792" PMx_abs="129.427113" NOx_abs="2979.137616" fuel_abs="537.116096" electricity_abs="0"/>
    </tripinfo>
    <tripinfo id="1.3" depart="12.00" departLane="-gneE0_0" departPos="6.60" departSpeed="0.00" departDelay="4.80" arrival="331.00" arrivalLane="-gneE0_0" arrivalPos="10000.00" arrivalSpeed="32.99" duration="319.00" routeLength="9993.40" waitSteps="0" timeLoss="15.93" rerouteNo="0" devices="tripinfo_1.3 emissions_1.3" vType="car2" speedFactor="1.00" vaporized="">
        <emissions CO_abs="26977.829697" CO2_abs="1389630.889337" HC_abs="449.777962" PMx_abs="133.438221" NOx_abs="3071.363058" fuel_abs="554.027988" electricity_abs="0"/>
    </tripinfo>
    <tripinfo id="0.3" depart="12.00" departLane="gneE0_0" departPos="6.60" departSpeed="0.00" departDelay="4.80" arrival="332.00" arrivalLane="gneE0_0" arrivalPos="10000.00" arrivalSpeed="32.21" duration="320.00" routeLength="9993.40" waitSteps="0" timeLoss="16.66" rerouteNo="0" devices="tripinfo_0.3 emissions_0.3" vType="car2" speedFactor="1.00" vaporized="">
        <emissions CO_abs="25880.467831" CO2_abs="1334412.589343" HC_abs="432.578482" PMx_abs="128.299970" NOx_abs="2948.949051" fuel_abs="532.013120" electricity_abs="0"/>
    </tripinfo>
    <tripinfo id="1.4" depart="16.00" departLane="-gneE0_0" departPos="6.60" departSpeed="0.00" departDelay="6.40" arrival="335.00" arrivalLane="-gneE0_0" arrivalPos="10000.00" arrivalSpeed="32.40" duration="319.00" routeLength="9993.40" waitSteps="0" timeLoss="15.62" rerouteNo="0" devices="tripinfo_1.4 emissions_1.4" vType="car2" speedFactor="1.00" vaporized="">
        <emissions CO_abs="27941.892376" CO2_abs="1436010.623079" HC_abs="463.650711" PMx_abs="137.746228" NOx_abs="3174.699931" fuel_abs="572.519083" electricity_abs="0"/>
    </tripinfo>
    <tripinfo id="0.5" depart="19.00" departLane="gneE0_0" departPos="6.60" departSpeed="0.00" departDelay="7.00" arrival="338.00" arrivalLane="gneE0_0" arrivalPos="10000.00" arrivalSpeed="32.93" duration="319.00" routeLength="9993.40" waitSteps="0" timeLoss="15.80" rerouteNo="0" devices="tripinfo_0.5 emissions_0.5" vType="car2" speedFactor="1.00" vaporized="">
        <emissions CO_abs="27803.226545" CO2_abs="1428941.551506" HC_abs="463.072275" PMx_abs="137.397307" NOx_abs="3160.035921" fuel_abs="569.700649" electricity_abs="0"/>
    </tripinfo>
    <tripinfo id="1.5" depart="20.00" departLane="-gneE0_0" departPos="6.60" departSpeed="0.00" departDelay="8.00" arrival="340.00" arrivalLane="-gneE0_0" arrivalPos="10000.00" arrivalSpeed="32.57" duration="320.00" routeLength="9993.40" waitSteps="0" timeLoss="16.28" rerouteNo="0" devices="tripinfo_1.5 emissions_1.5" vType="car2" speedFactor="1.00" vaporized="">
        <emissions CO_abs="27435.065491" CO2_abs="1414239.870724" HC_abs="456.735745" PMx_abs="134.983294" NOx_abs="3123.140544" fuel_abs="563.839323" electricity_abs="0"/>
    </tripinfo>
    <tripinfo id="0.6" depart="23.00" departLane="gneE0_0" departPos="6.60" departSpeed="0.00" departDelay="8.60" arrival="342.00" arrivalLane="gneE0_0" arrivalPos="10000.00" arrivalSpeed="32.81" duration="319.00" routeLength="9993.40" waitSteps="0" timeLoss="15.32" rerouteNo="0" devices="tripinfo_0.6 emissions_0.6" vType="car2" speedFactor="1.00" vaporized="">
        <emissions CO_abs="27373.050029" CO2_abs="1409365.981161" HC_abs="455.402664" PMx_abs="135.045364" NOx_abs="3114.720547" fuel_abs="561.896158" electricity_abs="0"/>
    </tripinfo>
    <tripinfo id="0.7" depart="26.00" departLane="gneE0_0" departPos="6.60" departSpeed="0.00" departDelay="9.20" arrival="346.00" arrivalLane="gneE0_0" arrivalPos="10000.00" arrivalSpeed="32.63" duration="320.00" routeLength="9993.40" waitSteps="1" timeLoss="16.79" rerouteNo="0" devices="tripinfo_0.7 emissions_0.7" vType="car2" speedFactor="1.00" vaporized="">
        <emissions CO_abs="28229.539562" CO2_abs="1453144.240154" HC_abs="471.572542" PMx_abs="139.510394" NOx_abs="3212.035157" fuel_abs="579.349901" electricity_abs="0"/>
    </tripinfo>
    <tripinfo id="1.8" depart="31.00" departLane="-gneE0_0" departPos="6.60" departSpeed="0.00" departDelay="11.80" arrival="350.00" arrivalLane="-gneE0_0" arrivalPos="10000.00" arrivalSpeed="32.36" duration="319.00" routeLength="9993.40" waitSteps="0" timeLoss="15.12" rerouteNo="0" devices="tripinfo_1.8 emissions_1.8" vType="car2" speedFactor="1.00" vaporized="">
        <emissions CO_abs="27863.979542" CO2_abs="1431638.074573" HC_abs="462.124840" PMx_abs="137.758678" NOx_abs="3166.447342" fuel_abs="570.775802" electricity_abs="0"/>
    </tripinfo>
    <tripinfo id="0.8" depart="35.00" departLane="gneE0_0" departPos="6.60" departSpeed="0.00" departDelay="15.80" arrival="356.00" arrivalLane="gneE0_0" arrivalPos="10000.00" arrivalSpeed="32.46" duration="321.00" routeLength="9993.40" waitSteps="0" timeLoss="17.88" rerouteNo="0" devices="tripinfo_0.8 emissions_0.8" vType="car2" speedFactor="1.00" vaporized="">
        <emissions CO_abs="26272.898001" CO2_abs="1362454.720678" HC_abs="439.679325" PMx_abs="130.325986" NOx_abs="3006.271621" fuel_abs="543.193176" electricity_abs="0"/>
    </tripinfo>
    <tripinfo id="0.2" depart="8.00" departLane="gneE0_0" departPos="6.60" departSpeed="0.00" departDelay="3.20" arrival="357.00" arrivalLane="gneE0_0" arrivalPos="10000.00" arrivalSpeed="29.86" duration="349.00" routeLength="9993.40" waitSteps="0" timeLoss="15.60" rerouteNo="0" devices="tripinfo_0.2 emissions_0.2" vType="car1" speedFactor="1.00" vaporized="">
        <emissions CO_abs="22126.974814" CO2_abs="1290232.860712" HC_abs="392.228045" PMx_abs="120.877160" NOx_abs="2789.682151" fuel_abs="514.398860" electricity_abs="0"/>
    </tripinfo>
    <tripinfo id="1.10" depart="38.00" departLane="-gneE0_0" departPos="6.60" departSpeed="0.00" departDelay="14.00" arrival="358.00" arrivalLane="-gneE0_0" arrivalPos="10000.00" arrivalSpeed="32.39" duration="320.00" routeLength="9993.40" waitSteps="0" timeLoss="16.30" rerouteNo="0" devices="tripinfo_1.10 emissions_1.10" vType="car2" speedFactor="1.00" vaporized="">
        <emissions CO_abs="27589.839565" CO2_abs="1418115.655279" HC_abs="459.139715" PMx_abs="137.088375" NOx_abs="3137.685728" fuel_abs="565.384513" electricity_abs="0"/>
    </tripinfo>
    <tripinfo id="0.9" depart="39.00" departLane="gneE0_0" departPos="6.60" departSpeed="0.00" departDelay="17.40" arrival="359.00" arrivalLane="gneE0_0" arrivalPos="10000.00" arrivalSpeed="32.91" duration="320.00" routeLength="9993.40" waitSteps="0" timeLoss="16.94" rerouteNo="0" devices="tripinfo_0.9 emissions_0.9" vType="car2" speedFactor="1.00" vaporized="">
        <emissions CO_abs="27142.353842" CO2_abs="1401163.073452" HC_abs="452.561230" PMx_abs="133.932916" NOx_abs="3094.094342" fuel_abs="558.625745" electricity_abs="0"/>
    </tripinfo>
    <tripinfo id="1.11" depart="42.00" departLane="-gneE0_0" departPos="6.60" departSpeed="0.00" departDelay="15.60" arrival="362.00" arrivalLane="-gneE0_0" arrivalPos="10000.00" arrivalSpeed="32.35" duration="320.00" routeLength="9993.40" waitSteps="0" timeLoss="16.51" rerouteNo="0" devices="tripinfo_1.11 emissions_1.11" vType="car2" speedFactor="1.00" vaporized="">
        <emissions CO_abs="26607.101619" CO2_abs="1370732.272915" HC_abs="442.886427" PMx_abs="131.508471" NOx_abs="3028.925473" fuel_abs="546.493395" electricity_abs="0"/>
    </tripinfo>
    <tripinfo id="0.10" depart="43.00" departLane="gneE0_0" departPos="6.60" departSpeed="0.00" departDelay="19.00" arrival="363.00" arrivalLane="gneE0_0" arrivalPos="10000.00" arrivalSpeed="32.30" duration="320.00" routeLength="9993.40" waitSteps="0" timeLoss="16.73" rerouteNo="0" devices="tripinfo_0.10 emissions_0.10" vType="car2" speedFactor="1.00" vaporized="">
        <emissions CO_abs="26282.651438" CO2_abs="1351096.317451" HC_abs="439.923275" PMx_abs="130.798815" NOx_abs="2989.747835" fuel_abs="538.664647" electricity_abs="0"/>
    </tripinfo>
    <tripinfo id="0.4" depart="16.00" departLane="gneE0_0" departPos="6.60" departSpeed="0.00" departDelay="6.40" arrival="364.00" arrivalLane="gneE0_0" arrivalPos="10000.00" arrivalSpeed="29.85" duration="348.00" routeLength="9993.40" waitSteps="0" timeLoss="14.38" rerouteNo="0" devices="tripinfo_0.4 emissions_0.4" vType="car1" speedFactor="1.00" vaporized="">
        <emissions CO_abs="22539.944061" CO2_abs="1318544.513305" HC_abs="399.119499" PMx_abs="122.704967" NOx_abs="2847.863166" fuel_abs="525.686386" electricity_abs="0"/>
    </tripinfo>
    <tripinfo id="1.12" depart="46.00" departLane="-gneE0_0" departPos="6.60" departSpeed="0.00" departDelay="17.20" arrival="366.00" arrivalLane="-gneE0_0" arrivalPos="10000.00" arrivalSpeed="32.53" duration="320.00" routeLength="9993.40" waitSteps="0" timeLoss="16.05" rerouteNo="0" devices="tripinfo_1.12 emissions_1.12" vType="car2" speedFactor="1.00" vaporized="">
        <emissions CO_abs="26015.530453" CO2_abs="1342683.776481" HC_abs="433.593964" PMx_abs="128.869666" NOx_abs="2966.333144" fuel_abs="535.310798" electricity_abs="0"/>
    </tripinfo>
    <tripinfo id="0.11" depart="47.00" departLane="gneE0_0" departPos="6.60" departSpeed="0.00" departDelay="20.60" arrival="367.00" arrivalLane="gneE0_0" arrivalPos="10000.00" arrivalSpeed="32.81" duration="320.00" routeLength="9993.40" waitSteps="0" timeLoss="16.41" rerouteNo="0" devices="tripinfo_0.11 emissions_0.11" vType="car2" speedFactor="1.00" vaporized="">
        <emissions CO_abs="26641.897238" CO2_abs="1371889.982092" HC_abs="445.316419" PMx_abs="132.068436" NOx_abs="3033.131952" fuel_abs="546.954859" electricity_abs="0"/>
    </tripinfo>
    <tripinfo id="1.13" depart="50.00" departLane="-gneE0_0" departPos="6.60" departSpeed="0.00" departDelay="18.80" arrival="371.00" arrivalLane="-gneE0_0" arrivalPos="10000.00" arrivalSpeed="32.22" duration="321.00" routeLength="9993.40" waitSteps="0" timeLoss="17.48" rerouteNo="0" devices="tripinfo_1.13 emissions_1.13" vType="car2" speedFactor="1.00" vaporized="">
        <emissions CO_abs="25838.371994" CO2_abs="1334193.733220" HC_abs="432.516600" PMx_abs="128.423921" NOx_abs="2948.023962" fuel_abs="531.925843" electricity_abs="0"/>
    </tripinfo>
    <tripinfo id="1.14" depart="54.00" departLane="-gneE0_0" departPos="6.60" departSpeed="0.00" departDelay="20.40" arrival="372.00" arrivalLane="-gneE0_1" arrivalPos="10000.00" arrivalSpeed="32.33" duration="318.00" routeLength="9993.40" waitSteps="0" timeLoss="14.99" rerouteNo="0" devices="tripinfo_1.14 emissions_1.14" vType="car2" speedFactor="1.00" vaporized="">
        <emissions CO_abs="27307.520442" CO2_abs="1402533.701076" HC_abs="453.593715" PMx_abs="135.068996" NOx_abs="3102.599766" fuel_abs="559.172224" electricity_abs="0"/>
    </tripinfo>
    <tripinfo id="1.6" depart="24.00" departLane="-gneE0_0" departPos="6.60" departSpeed="0.00" departDelay="9.60" arrival="373.00" arrivalLane="-gneE0_0" arrivalPos="10000.00" arrivalSpeed="29.13" duration="349.00" routeLength="9993.40" waitSteps="0" timeLoss="14.80" rerouteNo="0" devices="tripinfo_1.6 emissions_1.6" vType="car1" speedFactor="1.00" vaporized="">
        <emissions CO_abs="22500.909805" CO2_abs="1310915.425400" HC_abs="399.436530" PMx_abs="122.425577" NOx_abs="2834.246205" fuel_abs="522.644692" electricity_abs="0"/>
    </tripinfo>
    <tripinfo id="1.15" depart="58.00" departLane="-gneE0_0" departPos="6.60" departSpeed="0.00" departDelay="22.00" arrival="376.00" arrivalLane="-gneE0_1" arrivalPos="10000.00" arrivalSpeed="32.39" duration="318.00" routeLength="9993.40" waitSteps="0" timeLoss="14.71" rerouteNo="0" devices="tripinfo_1.15 emissions_1.15" vType="car2" speedFactor="1.00" vaporized="">
        <emissions CO_abs="27128.176913" CO2_abs="1392564.772239" HC_abs="451.795550" PMx_abs="134.519355" NOx_abs="3081.993518" fuel_abs="555.197673" electricity_abs="0"/>
    </tripinfo>
    <tripinfo id="0.13" depart="56.00" departLane="gneE0_0" departPos="6.60" departSpeed="0.00" departDelay="24.80" arrival="376.00" arrivalLane="gneE0_0" arrivalPos="10000.00" arrivalSpeed="32.63" duration="320.00" routeLength="9993.40" waitSteps="0" timeLoss="16.03" rerouteNo="0" devices="tripinfo_0.13 emissions_0.13" vType="car2" speedFactor="1.00" vaporized="">
        <emissions CO_abs="26604.853803" CO2_abs="1368667.143110" HC_abs="443.629006" PMx_abs="132.101805" NOx_abs="3027.292502" fuel_abs="545.669994" electricity_abs="0"/>
    </tripinfo>
    <tripinfo id="1.7" depart="27.00" departLane="-gneE0_0" departPos="6.60" departSpeed="0.00" departDelay="10.20" arrival="376.00" arrivalLane="-gneE0_0" arrivalPos="10000.00" arrivalSpeed="29.64" duration="349.00" routeLength="9993.40" waitSteps="0" timeLoss="15.50" rerouteNo="0" devices="tripinfo_1.7 emissions_1.7" vType="car1" speedFactor="1.00" vaporized="">
        <emissions CO_abs="21919.133194" CO2_abs="1280865.794836" HC_abs="388.551551" PMx_abs="119.345061" NOx_abs="2766.826850" fuel_abs="510.664358" electricity_abs="0"/>
    </tripinfo>
    <tripinfo id="0.14" depart="60.00" departLane="gneE0_0" departPos="6.60" departSpeed="0.00" departDelay="26.40" arrival="379.00" arrivalLane="gneE0_0" arrivalPos="10000.00" arrivalSpeed="32.55" duration="319.00" routeLength="9993.40" waitSteps="0" timeLoss="15.32" rerouteNo="0" devices="tripinfo_0.14 emissions_0.14" vType="car2" speedFactor="1.00" vaporized="">
        <emissions CO_abs="26789.560832" CO2_abs="1374461.268144" HC_abs="445.982508" PMx_abs="133.023613" NOx_abs="3042.747685" fuel_abs="547.980041" electricity_abs="0"/>
    </tripinfo>
    <tripinfo id="1.16" depart="61.00" departLane="-gneE0_0" departPos="6.60" departSpeed="0.00" departDelay="22.60" arrival="382.00" arrivalLane="-gneE0_0" arrivalPos="10000.00" arrivalSpeed="32.32" duration="321.00" routeLength="9993.40" waitSteps="1" timeLoss="17.74" rerouteNo="0" devices="tripinfo_1.16 emissions_1.16" vType="car2" speedFactor="1.00" vaporized="">
        <emissions CO_abs="26811.421395" CO2_abs="1381869.857991" HC_abs="446.884867" PMx_abs="132.555099" NOx_abs="3052.914760" fuel_abs="550.933791" electricity_abs="0"/>
    </tripinfo>
    <tripinfo id="1.9" depart="34.00" departLane="-gneE0_0" departPos="6.60" departSpeed="0.00" departDelay="12.40" arrival="383.00" arrivalLane="-gneE0_0" arrivalPos="10000.00" arrivalSpeed="29.88" duration="349.00" routeLength="9993.40" waitSteps="0" timeLoss="15.50" rerouteNo="0" devices="tripinfo_1.9 emissions_1.9" vType="car1" speedFactor="1.00" vaporized="">
        <emissions CO_abs="21222.591181" CO2_abs="1234145.664799" HC_abs="377.370744" PMx_abs="115.662902" NOx_abs="2669.578897" fuel_abs="492.037566" electricity_abs="0"/>
    </tripinfo>
    <tripinfo id="1.17" depart="66.00" departLane="-gneE0_0" departPos="6.60" departSpeed="0.00" departDelay="25.20" arrival="384.00" arrivalLane="-gneE0_1" arrivalPos="10000.00" arrivalSpeed="33.00" duration="318.00" routeLength="9993.40" waitSteps="0" timeLoss="14.94" rerouteNo="0" devices="tripinfo_1.17 emissions_1.17" vType="car2" speedFactor="1.00" vaporized="">
        <emissions CO_abs="27478.385361" CO2_abs="1410901.890605" HC_abs="457.917577" PMx_abs="135.779625" NOx_abs="3121.129590" fuel_abs="562.508443" electricity_abs="0"/>
    </tripinfo>
    <tripinfo id="0.15" depart="63.00" departLane="gneE0_0" departPos="6.60" departSpeed="0.00" departDelay="27.00" arrival="384.00" arrivalLane="gneE0_0" arrivalPos="10000.00" arrivalSpeed="32.84" duration="321.00" routeLength="9993.40" waitSteps="0" timeLoss="17.64" rerouteNo="0" devices="tripinfo_0.15 emissions_0.15" vType="car2" speedFactor="1.00" vaporized="">
        <emissions CO_abs="26636.937827" CO2_abs="1375394.508507" HC_abs="445.337692" PMx_abs="131.990209" NOx_abs="3038.121102" fuel_abs="548.352093" electricity_abs="0"/>
    </tripinfo>
    <tripinfo id="1.18" depart="70.00" departLane="-gneE0_0" departPos="6.60" departSpeed="0.00" departDelay="26.80" arrival="390.00" arrivalLane="-gneE0_0" arrivalPos="10000.00" arrivalSpeed="32.84" duration="320.00" routeLength="9993.40" waitSteps="0" timeLoss="16.03" rerouteNo="0" devices="tripinfo_1.18 emissions_1.18" vType="car2" speedFactor="1.00" vaporized="">
        <emissions CO_abs="27469.442472" CO2_abs="1413893.678756" HC_abs="457.814167" PMx_abs="135.321224" NOx_abs="3124.206818" fuel_abs="563.701262" electricity_abs="0"/>
    </tripinfo>
    <tripinfo id="0.17" depart="72.00" departLane="gneE0_0" departPos="6.60" departSpeed="0.00" departDelay="31.20" arrival="392.00" arrivalLane="gneE0_0" arrivalPos="10000.00" arrivalSpeed="32.60" duration="320.00" routeLength="9993.40" waitSteps="0" timeLoss="16.85" rerouteNo="0" devices="tripinfo_0.17 emissions_0.17" vType="car2" speedFactor="1.00" vaporized="">
        <emissions CO_abs="25958.915309" CO2_abs="1340272.314914" HC_abs="432.573224" PMx_abs="128.710019" NOx_abs="2960.658633" fuel_abs="534.349389" electricity_abs="0"/>
    </tripinfo>
    <tripinfo id="1.19" depart="74.00" departLane="-gneE0_0" departPos="6.60" departSpeed="0.00" departDelay="28.40" arrival="392.00" arrivalLane="-gneE0_0" arrivalPos="10000.00" arrivalSpeed="32.49" duration="318.00" routeLength="9993.40" waitSteps="0" timeLoss="14.67" rerouteNo="0" devices="tripinfo_1.19 emissions_1.19" vType="car2" speedFactor="1.00" vaporized="">
        <emissions CO_abs="27011.012780" CO2_abs="1390813.063503" HC_abs="448.518813" PMx_abs="133.144475" NOx_abs="3073.384275" fuel_abs="554.499388" electricity_abs="0"/>
    </tripinfo>
    <tripinfo id="0.18" depart="76.00" departLane="gneE0_0" departPos="6.60" departSpeed="0.00" departDelay="32.80" arrival="396.00" arrivalLane="gneE0_0" arrivalPos="10000.00" arrivalSpeed="32.15" duration="320.00" routeLength="9993.40" waitSteps="0" timeLoss="16.77" rerouteNo="0" devices="tripinfo_0.18 emissions_0.18" vType="car2" speedFactor="1.00" vaporized="">
        <emissions CO_abs="28118.255057" CO2_abs="1450758.239281" HC_abs="468.927482" PMx_abs="139.136399" NOx_abs="3205.214932" fuel_abs="578.398682" electricity_abs="0"/>
    </tripinfo>
    <tripinfo id="1.20" depart="77.00" departLane="-gneE0_0" departPos="6.60" departSpeed="0.00" departDelay="29.00" arrival="396.00" arrivalLane="-gneE0_0" arrivalPos="10000.00" arrivalSpeed="32.13" duration="319.00" routeLength="9993.40" waitSteps="0" timeLoss="15.84" rerouteNo="0" devices="tripinfo_1.20 emissions_1.20" vType="car2" speedFactor="1.00" vaporized="">
        <emissions CO_abs="26452.039736" CO2_abs="1363898.830815" HC_abs="439.329691" PMx_abs="130.397325" NOx_abs="3012.298539" fuel_abs="543.769044" electricity_abs="0"/>
    </tripinfo>
    <tripinfo id="0.19" depart="80.00" departLane="gneE0_0" departPos="6.60" departSpeed="0.00" departDelay="34.40" arrival="400.00" arrivalLane="gneE0_0" arrivalPos="10000.00" arrivalSpeed="32.60" duration="320.00" routeLength="9993.40" waitSteps="0" timeLoss="16.05" rerouteNo="0" devices="tripinfo_0.19 emissions_0.19" vType="car2" speedFactor="1.00" vaporized="">
        <emissions CO_abs="27372.523212" CO2_abs="1408174.550245" HC_abs="457.403897" PMx_abs="136.259399" NOx_abs="3115.870985" fuel_abs="561.421032" electricity_abs="0"/>
    </tripinfo>
    <tripinfo id="1.21" depart="81.00" departLane="-gneE0_0" departPos="6.60" departSpeed="0.00" departDelay="30.60" arrival="400.00" arrivalLane="-gneE0_0" arrivalPos="10000.00" arrivalSpeed="32.82" duration="319.00" routeLength="9993.40" waitSteps="0" timeLoss="15.44" rerouteNo="0" devices="tripinfo_1.21 emissions_1.21" vType="car2" speedFactor="1.00" vaporized="">
        <emissions CO_abs="26808.561991" CO2_abs="1382566.420685" HC_abs="446.652744" PMx_abs="132.114381" NOx_abs="3053.605087" fuel_abs="551.211504" electricity_abs="0"/>
    </tripinfo>
    <tripinfo id="1.22" depart="85.00" departLane="-gneE0_0" departPos="6.60" departSpeed="0.00" departDelay="32.20" arrival="403.00" arrivalLane="-gneE0_0" arrivalPos="10000.00" arrivalSpeed="32.39" duration="318.00" routeLength="9993.40" waitSteps="0" timeLoss="14.78" rerouteNo="0" devices="tripinfo_1.22 emissions_1.22" vType="car2" speedFactor="1.00" vaporized="">
        <emissions CO_abs="27200.828124" CO2_abs="1397910.329559" HC_abs="452.748603" PMx_abs="134.214754" NOx_abs="3091.104853" fuel_abs="557.328911" electricity_abs="0"/>
    </tripinfo>
    <tripinfo id="0.20" depart="83.00" departLane="gneE0_0" departPos="6.60" departSpeed="0.00" departDelay="35.00" arrival="404.00" arrivalLane="gneE0_0" arrivalPos="10000.00" arrivalSpeed="32.39" duration="321.00" routeLength="9993.40" waitSteps="0" timeLoss="17.28" rerouteNo="0" devices="tripinfo_0.20 emissions_0.20" vType="car2" speedFactor="1.00" vaporized="">
        <emissions CO_abs="29682.067427" CO2_abs="1528135.840183" HC_abs="493.654887" PMx_abs="146.803978" NOx_abs="3377.879629" fuel_abs="609.248187" electricity_abs="0"/>
    </tripinfo>
    <tripinfo id="0.21" depart="87.00" departLane="gneE0_0" departPos="6.60" departSpeed="0.00" departDelay="36.60" arrival="406.00" arrivalLane="gneE0_0" arrivalPos="10000.00" arrivalSpeed="32.88" duration="319.00" routeLength="9993.40" waitSteps="0" timeLoss="15.93" rerouteNo="0" devices="tripinfo_0.21 emissions_0.21" vType="car2" speedFactor="1.00" vaporized="">
        <emissions CO_abs="28504.283542" CO2_abs="1462330.766926" HC_abs="475.466342" PMx_abs="141.954103" NOx_abs="3238.444590" fuel_abs="583.012431" electricity_abs="0"/>
    </tripinfo>
    <tripinfo id="1.23" depart="89.00" departLane="-gneE0_0" departPos="6.60" departSpeed="0.00" departDelay="33.80" arrival="409.00" arrivalLane="-gneE0_0" arrivalPos="10000.00" arrivalSpeed="32.62" duration="320.00" routeLength="9993.40" waitSteps="0" timeLoss="16.07" rerouteNo="0" devices="tripinfo_1.23 emissions_1.23" vType="car2" speedFactor="1.00" vaporized="">
        <emissions CO_abs="26871.521130" CO2_abs="1385564.033353" HC_abs="447.671158" PMx_abs="132.394810" NOx_abs="3060.103400" fuel_abs="552.406619" electricity_abs="0"/>
    </tripinfo>
    <tripinfo id="1.24" depart="93.00" departLane="-gneE0_0" departPos="6.60" departSpeed="0.00" departDelay="35.40" arrival="412.00" arrivalLane="-gneE0_0" arrivalPos="10000.00" arrivalSpeed="32.34" duration="319.00" routeLength="9993.40" waitSteps="0" timeLoss="15.75" rerouteNo="0" devices="tripinfo_1.24 emissions_1.24" vType="car2" speedFactor="1.00" vaporized="">
        <emissions CO_abs="26948.369265" CO2_abs="1387545.414464" HC_abs="449.015940" PMx_abs="132.929349" NOx_abs="3066.169540" fuel_abs="553.196552" electricity_abs="0"/>
    </tripinfo>
    <tripinfo id="0.23" depart="95.00" departLane="gneE0_0" departPos="6.60" departSpeed="0.00" departDelay="39.80" arrival="414.00" arrivalLane="gneE0_0" arrivalPos="10000.00" arrivalSpeed="32.79" duration="319.00" routeLength="9993.40" waitSteps="0" timeLoss="15.30" rerouteNo="0" devices="tripinfo_0.23 emissions_0.23" vType="car2" speedFactor="1.00" vaporized="">
        <emissions CO_abs="27611.503920" CO2_abs="1414486.959579" HC_abs="459.555955" PMx_abs="138.285927" NOx_abs="3135.714023" fuel_abs="563.937744" electricity_abs="0"/>
    </tripinfo>
    <tripinfo id="0.25" depart="102.00" departLane="gneE0_0" departPos="6.60" departSpeed="0.00" departDelay="42.00" arrival="422.00" arrivalLane="gneE0_0" arrivalPos="10000.00" arrivalSpeed="32.16" duration="320.00" routeLength="9993.40" waitSteps="0" timeLoss="16.52" rerouteNo="0" devices="tripinfo_0.25 emissions_0.25" vType="car2" speedFactor="1.00" vaporized="">
        <emissions CO_abs="27954.145117" CO2_abs="1435293.187087" HC_abs="465.360738" PMx_abs="139.286919" NOx_abs="3177.641558" fuel_abs="572.232952" electricity_abs="0"/>
    </tripinfo>
    <tripinfo id="0.26" depart="106.00" departLane="gneE0_0" departPos="6.60" departSpeed="0.00" departDelay="43.60" arrival="426.00" arrivalLane="gneE0_0" arrivalPos="10000.00" arrivalSpeed="32.38" duration="320.00" routeLength="9993.40" waitSteps="0" timeLoss="16.77" rerouteNo="0" devices="tripinfo_0.26 emissions_0.26" vType="car2" speedFactor="1.00" vaporized="">
        <emissions CO_abs="26631.997494" CO2_abs="1371479.909143" HC_abs="446.770527" PMx_abs="132.997228" NOx_abs="3034.684385" fuel_abs="546.791277" electricity_abs="0"/>
    </tripinfo>
    <tripinfo id="1.27" depart="105.00" departLane="-gneE0_0" departPos="6.60" departSpeed="0.00" departDelay="40.20" arrival="426.00" arrivalLane="-gneE0_0" arrivalPos="10000.00" arrivalSpeed="32.28" duration="321.00" routeLength="9993.40" waitSteps="0" timeLoss="17.29" rerouteNo="0" devices="tripinfo_1.27 emissions_1.27" vType="car2" speedFactor="1.00" vaporized="">
        <emissions CO_abs="26033.489138" CO2_abs="1348225.995857" HC_abs="435.253523" PMx_abs="129.045851" NOx_abs="2975.794678" fuel_abs="537.520376" electricity_abs="0"/>
    </tripinfo>
    <tripinfo id="0.28" depart="115.00" departLane="gneE0_0" departPos="6.60" departSpeed="0.00" departDelay="47.80" arrival="437.00" arrivalLane="gneE0_0" arrivalPos="10000.00" arrivalSpeed="32.32" duration="322.00" routeLength="9993.40" waitSteps="0" timeLoss="18.76" rerouteNo="0" devices="tripinfo_0.28 emissions_0.28" vType="car2" speedFactor="1.00" vaporized="">
        <emissions CO_abs="27998.671141" CO2_abs="1447730.221117" HC_abs="467.090389" PMx_abs="140.092952" NOx_abs="3200.450266" fuel_abs="577.191438" electricity_abs="0"/>
    </tripinfo>
    <tripinfo id="1.30" depart="117.00" departLane="-gneE0_0" departPos="6.60" departSpeed="0.00" departDelay="45.00" arrival="438.00" arrivalLane="-gneE0_0" arrivalPos="10000.00" arrivalSpeed="32.14" duration="321.00" routeLength="9993.40" waitSteps="0" timeLoss="17.95" rerouteNo="0" devices="tripinfo_1.30 emissions_1.30" vType="car2" speedFactor="1.00" vaporized="">
        <emissions CO_abs="25790.452542" CO2_abs="1334895.771771" HC_abs="432.298076" PMx_abs="128.148724" NOx_abs="2947.679452" fuel_abs="532.205726" electricity_abs="0"/>
    </tripinfo>
    <tripinfo id="0.29" depart="119.00" departLane="gneE0_0" departPos="6.60" departSpeed="0.00" departDelay="49.40" arrival="439.00" arrivalLane="gneE0_1" arrivalPos="10000.00" arrivalSpeed="32.11" duration="320.00" routeLength="9993.40" waitSteps="0" timeLoss="16.56" rerouteNo="0" devices="tripinfo_0.29 emissions_0.29" vType="car2" speedFactor="1.00" vaporized="">