<?xml version="1.0" encoding="UTF-8"?>

<!-- generated on Wed Oct 11 10:02:16 2017 by SUMO Version 0.30.0
<?xml version="1.0" encoding="UTF-8"?>

<configuration xmlns:xsi="http://www.w3.org/2001/XMLSchema-instance" xsi:noNamespaceSchemaLocation="http://sumo.dlr.de/xsd/sumoConfiguration.xsd">

    <input>
        <net-file value="./network/highway.net.xml"/>
        <route-files value="./network/highway.rou.xml"/>
    </input>

    <output>
        <netstate-dump value="./network/../log/sumo/netstate.dump"/>
        <tripinfo-output value="./network/../log/sumo/tripinfo"/>
        <tripinfo-output.write-unfinished value="false"/>
    </output>

    <time>
        <begin value="0"/>
        <end value="840"/>
    </time>

    <emissions>
        <device.emissions.probability value="1"/>
    </emissions>

    <traci_server>
        <remote-port value="5500"/>
    </traci_server>

    <random_number>
        <seed value="14884"/>
    </random_number>

</configuration>
-->

<tripinfos xmlns:xsi="http://www.w3.org/2001/XMLSchema-instance" xsi:noNamespaceSchemaLocation="http://sumo.dlr.de/xsd/tripinfo_file.xsd">
    <tripinfo id="1.0" depart="0.00" departLane="-gneE0_0" departPos="6.60" departSpeed="0.00" departDelay="0.00" arrival="319.00" arrivalLane="-gneE0_0" arrivalPos="10000.00" arrivalSpeed="32.93" duration="319.00" routeLength="9993.40" waitSteps="0" timeLoss="15.10" rerouteNo="0" devices="tripinfo_1.0 emissions_1.0" vType="car2" speedFactor="1.00" vaporized="">
        <emissions CO_abs="26480.386038" CO2_abs="1361390.923751" HC_abs="441.481747" PMx_abs="131.114636" NOx_abs="3011.044990" fuel_abs="542.769058" electricity_abs="0"/>
    </tripinfo>
    <tripinfo id="0.0" depart="0.00" departLane="gneE0_0" departPos="6.60" departSpeed="0.00" departDelay="0.00" arrival="320.00" arrivalLane="gneE0_0" arrivalPos="10000.00" arrivalSpeed="32.92" duration="320.00" routeLength="9993.40" waitSteps="0" timeLoss="16.18" rerouteNo="0" devices="tripinfo_0.0 emissions_0.0" vType="car2" speedFactor="1.00" vaporized="">
        <emissions CO_abs="26764.981285" CO2_abs="1381134.198757" HC_abs="445.517254" PMx_abs="131.776180" NOx_abs="3049.266455" fuel_abs="550.640528" electricity_abs="0"/>
    </tripinfo>
    <tripinfo id="0.1" depart="4.00" departLane="gneE0_0" departPos="6.60" departSpeed="0.00" departDelay="1.60" arrival="323.00" arrivalLane="gneE0_0" arrivalPos="10000.00" arrivalSpeed="33.00" duration="319.00" routeLength="9993.40" waitSteps="0" timeLoss="15.63" rerouteNo="0" devices="tripinfo_0.1 emissions_0.1" vType="car2" speedFactor="1.00" vaporized="">
        <emissions CO_abs="26963.172264" CO2_abs="1389645.042732" HC_abs="449.646026" PMx_abs="132.603126" NOx_abs="3069.049093" fuel_abs="554.033641" electricity_abs="0"/>
    </tripinfo>
    <tripinfo id="1.1" depart="4.00" departLane="-gneE0_0" departPos="6.60" departSpeed="0.00" departDelay="1.60" arrival="323.00" arrivalLane="-gneE0_0" arrivalPos="10000.00" arrivalSpeed="32.94" duration="319.00" routeLength="9993.40" waitSteps="0" timeLoss="15.62" rerouteNo="0" devices="tripinfo_1.1 emissions_1.1" vType="car2" speedFactor="1.00" vaporized="">
        <emissions CO_abs="27532.193921" CO2_abs="1416432.381950" HC_abs="456.993454" PMx_abs="136.112596" NOx_abs="3131.440535" fuel_abs="564.713484" electricity_abs="0"/>
    </tripinfo>
    <tripinfo id="1.2" depart="8.00" departLane="-gneE0_0" departPos="6.60" departSpeed="0.00" departDelay="3.20" arrival="327.00" arrivalLane="-gneE0_0" arrivalPos="10000.00" arrivalSpeed="32.85" duration="319.00" routeLength="9993.40" waitSteps="0" timeLoss="15.41" rerouteNo="0" devices="tripinfo_1.2 emissions_1.2" vType="car2" speedFactor="1.00" vaporized="">
        <emissions CO_abs="27166.880435" CO2_abs="1396439.035961" HC_abs="451.565470" PMx_abs="133.857280" NOx_abs="3086.908007" fuel_abs="556.742364" electricity_abs="0"/>
    </tripinfo>
    <tripinfo id="1.3" depart="12.00" departLane="-gneE0_0" departPos="6.60" departSpeed="0.00" departDelay="4.80" arrival="331.00" arrivalLane="-gneE0_0" arrivalPos="10000.00" arrivalSpeed="32.50" duration="319.00" routeLength="9993.40" waitSteps="0" timeLoss="15.65" rerouteNo="0" devices="tripinfo_1.3 emissions_1.3" vType="car2" speedFactor="1.00" vaporized="">
        <emissions CO_abs="27299.626243" CO2_abs="1405482.920321" HC_abs="454.354949" PMx_abs="134.749955" NOx_abs="3106.100007" fuel_abs="560.348026" electricity_abs="0"/>
    </tripinfo>
    <tripinfo id="0.3" depart="12.00" departLane="gneE0_0" departPos="6.60" departSpeed="0.00" departDelay="4.80" arrival="332.00" arrivalLane="gneE0_0" arrivalPos="10000.00" arrivalSpeed="32.87" duration="320.00" routeLength="9993.40" waitSteps="0" timeLoss="16.75" rerouteNo="0" devices="tripinfo_0.3 emissions_0.3" vType="car2" speedFactor="1.00" vaporized="">
        <emissions CO_abs="29382.130299" CO2_abs="1513632.906059" HC_abs="488.361577" PMx_abs="144.481241" NOx_abs="3343.123196" fuel_abs="603.466085" electricity_abs="0"/>
    </tripinfo>
    <tripinfo id="1.4" depart="16.00" departLane="-gneE0_0" departPos="6.60" departSpeed="0.00" departDelay="6.40" arrival="335.00" arrivalLane="-gneE0_0" arrivalPos="10000.00" arrivalSpeed="32.54" duration="319.00" routeLength="9993.40" waitSteps="0" timeLoss="15.46" rerouteNo="0" devices="tripinfo_1.4 emissions_1.4" vType="car2" speedFactor="1.00" vaporized="">
        <emissions CO_abs="27477.873348" CO2_abs="1412418.196298" HC_abs="456.138659" PMx_abs="135.417824" NOx_abs="3122.240861" fuel_abs="563.113078" electricity_abs="0"/>
    </tripinfo>
    <tripinfo id="0.5" depart="19.00" departLane="gneE0_0" departPos="6.60" departSpeed="0.00" departDelay="7.00" arrival="338.00" arrivalLane="gneE0_0" arrivalPos="10000.00" arrivalSpeed="32.56" duration="319.00" routeLength="9993.40" waitSteps="0" timeLoss="15.85" rerouteNo="0" devices="tripinfo_0.5 emissions_0.5" vType="car2" speedFactor="1.00" vaporized="">
        <emissions CO_abs="26831.661230" CO2_abs="1380590.640611" HC_abs="447.502343" PMx_abs="132.660266" NOx_abs="3052.237479" fuel_abs="550.423743" electricity_abs="0"/>
    </tripinfo>
    <tripinfo id="1.5" depart="20.00" departLane="-gneE0_0" departPos="6.60" departSpeed="0.00" departDelay="8.00" arrival="340.00" arrivalLane="-gneE0_0" arrivalPos="10000.00" arrivalSpeed="32.63" duration="320.00" routeLength="9993.40" waitSteps="0" timeLoss="16.38" rerouteNo="0" devices="tripinfo_1.5 emissions_1.5" vType="car2" speedFactor="1.00" vaporized="">
        <emissions CO_abs="26398.527864" CO2_abs="1362979.066142" HC_abs="440.008122" PMx_abs="130.328865" NOx_abs="3009.650806" fuel_abs="543.402280" electricity_abs="0"/>
    </tripinfo>
    <tripinfo id="0.6" depart="23.00" departLane="gneE0_0" departPos="6.60" departSpeed="0.00" departDelay="8.60" arrival="342.00" arrivalLane="gneE0_0" arrivalPos="10000.00" arrivalSpeed="32.95" duration="319.00" routeLength="9993.40" waitSteps="0" timeLoss="15.03" rerouteNo="0" devices="tripinfo_0.6 emissions_0.6" vType="car2" speedFactor="1.00" vaporized="">
        <emissions CO_abs="26637.779433" CO2_abs="1370622.204688" HC_abs="443.743325" PMx_abs="131.337587" NOx_abs="3029.409840" fuel_abs="546.449481" electricity_abs="0"/>
    </tripinfo>
    <tripinfo id="0.7" depart="26.00" departLane="gneE0_0" departPos="6.60" departSpeed="0.00" departDelay="9.20" arrival="346.00" arrivalLane="gneE0_0" arrivalPos="10000.00" arrivalSpeed="32.82" duration="320.00" routeLength="9993.40" waitSteps="1" timeLoss="16.84" rerouteNo="0" devices="tripinfo_0.7 emissions_0.7" vType="car2" speedFactor="1.00" vaporized="">
        <emissions CO_abs="27080.163279" CO2_abs="1397420.801741" HC_abs="450.921618" PMx_abs="133.859494" NOx_abs="3086.523651" fuel_abs="557.133774" electricity_abs="0"/>
    </tripinfo>
    <tripinfo id="1.8" depart="31.00" departLane="-gneE0_0" departPos="6.60" departSpeed="0.00" departDelay="11.80" arrival="350.00" arrivalLane="-gneE0_0" arrivalPos="10000.00" arrivalSpeed="32.76" duration="319.00" routeLength="9993.40" waitSteps="0" timeLoss="15.77" rerouteNo="0" devices="tripinfo_1.8 emissions_1.8" vType="car2" speedFactor="1.00" vaporized="">
        <emissions CO_abs="27074.449368" CO2_abs="1396219.774095" HC_abs="450.845988" PMx_abs="134.155157" NOx_abs="3085.642963" fuel_abs="556.654920" electricity_abs="0"/>
    </tripinfo>
    <tripinfo id="0.2" depart="8.00" departLane="gneE0_0" departPos="6.60" departSpeed="0.00" departDelay="3.20" arrival="357.00" arrivalLane="gneE0_0" arrivalPos="10000.00" arrivalSpeed="29.82" duration="349.00" routeLength="9993.40" waitSteps="0" timeLoss="15.40" rerouteNo="0" devices="tripinfo_0.2 emissions_0.2" vType="car1" speedFactor="1.00" vaporized="">
        <emissions CO_abs="23236.203074" CO2_abs="1350642.068873" HC_abs="410.961543" PMx_abs="127.254590" NOx_abs="2923.593346" fuel_abs="538.483227" electricity_abs="0"/>
    </tripinfo>
    <tripinfo id="1.10" depart="38.00" departLane="-gneE0_0" departPos="6.60" departSpeed="0.00" departDelay="14.00" arrival="358.00" arrivalLane="-gneE0_0" arrivalPos="10000.00" arrivalSpeed="32.62" duration="320.00" routeLength="9993.40" waitSteps="0" timeLoss="16.24" rerouteNo="0" devices="tripinfo_1.10 emissions_1.10" vType="car2" speedFactor="1.00" vaporized="">
        <emissions CO_abs="25526.743938" CO2_abs="1312867.727238" HC_abs="427.002806" PMx_abs="127.178476" NOx_abs="2905.151774" fuel_abs="523.423415" electricity_abs="0"/>
    </tripinfo>
    <tripinfo id="0.9" depart="40.00" departLane="gneE0_0" departPos="6.60" departSpeed="0.00" departDelay="18.40" arrival="361.00" arrivalLane="gneE0_0" arrivalPos="10000.00" arrivalSpeed="32.51" duration="321.00" routeLength="9993.40" waitSteps="0" timeLoss="17.32" rerouteNo="0" devices="tripinfo_0.9 emissions_0.9" vType="car2" speedFactor="1.00" vaporized="">
        <emissions CO_abs="28571.531646" CO2_abs="1473849.475705" HC_abs="474.799770" PMx_abs="140.939630" NOx_abs="3255.170973" fuel_abs="587.604947" electricity_abs="0"/>
    </tripinfo>
    <tripinfo id="1.11" depart="42.00" departLane="-gneE0_0" departPos="6.60" departSpeed="0.00" departDelay="15.60" arrival="362.00" arrivalLane="-gneE0_0" arrivalPos="10000.00" arrivalSpeed="32.71" duration="320.00" routeLength="9993.40" waitSteps="0" timeLoss="16.58" rerouteNo="0" devices="tripinfo_1.11 emissions_1.11" vType="car2" speedFactor="1.00" vaporized="">
        <emissions CO_abs="27582.102065" CO2_abs="1418424.342609" HC_abs="458.805634" PMx_abs="136.459634" NOx_abs="3136.391661" fuel_abs="565.507608" electricity_abs="0"/>
    </tripinfo>
    <tripinfo id="0.10" depart="44.00" departLane="gneE0_0" departPos="6.60" departSpeed="0.00" departDelay="20.00" arrival="364.00" arrivalLane="gneE0_1" arrivalPos="10000.00" arrivalSpeed="32.19" duration="320.00" routeLength="9993.40" waitSteps="0" timeLoss="16.73" rerouteNo="0" devices="tripinfo_0.10 emissions_0.10" vType="car2" speedFactor="1.00" vaporized="">
        <emissions CO_abs="28473.970690" CO2_abs="1466459.311079" HC_abs="474.148129" PMx_abs="140.798876" NOx_abs="3241.305312" fuel_abs="584.658518" electricity_abs="0"/>
    </tripinfo>
    <tripinfo id="0.4" depart="16.00" departLane="gneE0_0" departPos="6.60" departSpeed="0.00" departDelay="6.40" arrival="364.00" arrivalLane="gneE0_0" arrivalPos="10000.00" arrivalSpeed="29.33" duration="348.00" routeLength="9993.40" waitSteps="0" timeLoss="14.13" rerouteNo="0" devices="tripinfo_0.4 emissions_0.4" vType="car1" speedFactor="1.00" vaporized="">
        <emissions CO_abs="22365.139671" CO2_abs="1308546.809512" HC_abs="395.343915" PMx_abs="121.595829" NOx_abs="2825.673567" fuel_abs="521.700469" electricity_abs="0"/>
    </tripinfo>
    <tripinfo id="1.12" depart="47.00" departLane="-gneE0_0" departPos="6.60" departSpeed="0.00" departDelay="18.20" arrival="366.00" arrivalLane="-gneE0_0" arrivalPos="10000.00" arrivalSpeed="32.80" duration="319.00" routeLength="9993.40" waitSteps="0" timeLoss="15.44" rerouteNo="0" devices="tripinfo_1.12 emissions_1.12" vType="car2" speedFactor="1.00" vaporized="">
        <emissions CO_abs="28832.327497" CO2_abs="1477643.694668" HC_abs="478.835489" PMx_abs="142.760694" NOx_abs="3271.039807" fuel_abs="589.117600" electricity_abs="0"/>
    </tripinfo>
    <tripinfo id="0.11" depart="48.00" departLane="gneE0_0" departPos="6.60" departSpeed="0.00" departDelay="21.60" arrival="367.00" arrivalLane="gneE0_0" arrivalPos="10000.00" arrivalSpeed="32.83" duration="319.00" routeLength="9993.40" waitSteps="0" timeLoss="15.04" rerouteNo="0" devices="tripinfo_0.11 emissions_0.11" vType="car2" speedFactor="1.00" vaporized="">
        <emissions CO_abs="27998.546100" CO2_abs="1437017.458277" HC_abs="465.375192" PMx_abs="138.595930" NOx_abs="3179.850835" fuel_abs="572.920434" electricity_abs="0"/>
    </tripinfo>
    <tripinfo id="1.13" depart="50.00" departLane="-gneE0_0" departPos="6.60" departSpeed="0.00" departDelay="18.80" arrival="372.00" arrivalLane="-gneE0_1" arrivalPos="10000.00" arrivalSpeed="32.72" duration="322.00" routeLength="9993.40" waitSteps="1" timeLoss="18.16" rerouteNo="0" devices="tripinfo_1.13 emissions_1.13" vType="car2" speedFactor="1.00" vaporized="">
        <emissions CO_abs="26214.069388" CO2_abs="1351851.481775" HC_abs="438.060622" PMx_abs="130.259998" NOx_abs="2987.671104" fuel_abs="538.965793" electricity_abs="0"/>
    </tripinfo>
    <tripinfo id="1.6" depart="24.00" departLane="-gneE0_0" departPos="6.60" departSpeed="0.00" departDelay="9.60" arrival="372.00" arrivalLane="-gneE0_0" arrivalPos="10000.00" arrivalSpeed="29.66" duration="348.00" routeLength="9993.40" waitSteps="0" timeLoss="14.39" rerouteNo="0" devices="tripinfo_1.6 emissions_1.6" vType="car1" speedFactor="1.00" vaporized="">
        <emissions CO_abs="22700.748391" CO2_abs="1318002.104388" HC_abs="402.425986" PMx_abs="123.739780" NOx_abs="2852.710071" fuel_abs="525.470052" electricity_abs="0"/>
    </tripinfo>
    <tripinfo id="1.14" depart="55.00" departLane="-gneE0_0" departPos="6.60" departSpeed="0.00" departDelay="21.40" arrival="375.00" arrivalLane="-gneE0_0" arrivalPos="10000.00" arrivalSpeed="32.54" duration="320.00" routeLength="9993.40" waitSteps="0" timeLoss="16.05" rerouteNo="0" devices="tripinfo_1.14 emissions_1.14" vType="car2" speedFactor="1.00" vaporized="">
        <emissions CO_abs="26835.405942" CO2_abs="1378386.534569" HC_abs="448.608620" PMx_abs="133.343109" NOx_abs="3050.518233" fuel_abs="549.544923" electricity_abs="0"/>
    </tripinfo>
    <tripinfo id="0.13" depart="57.00" departLane="gneE0_0" departPos="6.60" departSpeed="0.00" departDelay="25.80" arrival="377.00" arrivalLane="gneE0_0" arrivalPos="10000.00" arrivalSpeed="32.94" duration="320.00" routeLength="9993.40" waitSteps="0" timeLoss="16.50" rerouteNo="0" devices="tripinfo_0.13 emissions_0.13" vType="car2" speedFactor="1.00" vaporized="">
        <emissions CO_abs="28859.013917" CO2_abs="1484439.560114" HC_abs="479.940002" PMx_abs="142.570805" NOx_abs="3281.616237" fuel_abs="591.827036" electricity_abs="0"/>
    </tripinfo>
    <tripinfo id="1.7" depart="27.00" departLane="-gneE0_0" departPos="6.60" departSpeed="0.00" departDelay="10.20" arrival="377.00" arrivalLane="-gneE0_0" arrivalPos="10000.00" arrivalSpeed="29.46" duration="350.00" routeLength="9993.40" waitSteps="0" timeLoss="15.80" rerouteNo="0" devices="tripinfo_1.7 emissions_1.7" vType="car1" speedFactor="1.00" vaporized="">
        <emissions CO_abs="21352.743475" CO2_abs="1245826.718368" HC_abs="379.834776" PMx_abs="116.334721" NOx_abs="2692.433944" fuel_abs="496.694665" electricity_abs="0"/>
    </tripinfo>
    <tripinfo id="1.15" depart="59.00" departLane="-gneE0_0" departPos="6.60" departSpeed="0.00" departDelay="23.00" arrival="378.00" arrivalLane="-gneE0_1" arrivalPos="10000.00" arrivalSpeed="32.49" duration="319.00" routeLength="9993.40" waitSteps="0" timeLoss="15.72" rerouteNo="0" devices="tripinfo_1.15 emissions_1.15" vType="car2" speedFactor="1.00" vaporized="">
        <emissions CO_abs="27295.642623" CO2_abs="1401352.086013" HC_abs="454.256177" PMx_abs="135.202850" NOx_abs="3100.555164" fuel_abs="558.701089" electricity_abs="0"/>
    </tripinfo>
    <tripinfo id="0.14" depart="60.00" departLane="gneE0_0" departPos="6.60" departSpeed="0.00" departDelay="26.40" arrival="381.00" arrivalLane="gneE0_0" arrivalPos="10000.00" arrivalSpeed="32.61" duration="321.00" routeLength="9993.40" waitSteps="0" timeLoss="17.84" rerouteNo="0" devices="tripinfo_0.14 emissions_0.14" vType="car2" speedFactor="1.00" vaporized="">
        <emissions CO_abs="27141.093149" CO2_abs="1408210.911440" HC_abs="452.994965" PMx_abs="133.781396" NOx_abs="3104.661663" fuel_abs="561.435654" electricity_abs="0"/>
    </tripinfo>
    <tripinfo id="1.16" depart="63.00" departLane="-gneE0_0" departPos="6.60" departSpeed="0.00" departDelay="24.60" arrival="382.00" arrivalLane="-gneE0_0" arrivalPos="10000.00" arrivalSpeed="32.63" duration="319.00" routeLength="9993.40" waitSteps="0" timeLoss="15.85" rerouteNo="0" devices="tripinfo_1.16 emissions_1.16" vType="car2" speedFactor="1.00" vaporized="">
        <emissions CO_abs="27514.547816" CO2_abs="1416488.723793" HC_abs="458.057729" PMx_abs="135.703637" NOx_abs="3130.283143" fuel_abs="564.735894" electricity_abs="0"/>
    </tripinfo>
    <tripinfo id="1.9" depart="34.00" departLane="-gneE0_0" departPos="6.60" departSpeed="0.00" departDelay="12.40" arrival="383.00" arrivalLane="-gneE0_0" arrivalPos="10000.00" arrivalSpeed="29.62" duration="349.00" routeLength="9993.40" waitSteps="0" timeLoss="15.58" rerouteNo="0" devices="tripinfo_1.9 emissions_1.9" vType="car1" speedFactor="1.00" vaporized="">
        <emissions CO_abs="21667.087826" CO2_abs="1264641.534962" HC_abs="384.200480" PMx_abs="118.069818" NOx_abs="2732.856153" fuel_abs="504.195944" electricity_abs="0"/>
    </tripinfo>
    <tripinfo id="0.15" depart="64.00" departLane="gneE0_0" departPos="6.60" departSpeed="0.00" departDelay="28.00" arrival="384.00" arrivalLane="gneE0_0" arrivalPos="10000.00" arrivalSpeed="32.32" duration="320.00" routeLength="9993.40" waitSteps="0" timeLoss="16.57" rerouteNo="0" devices="tripinfo_0.15 emissions_0.15" vType="car2" speedFactor="1.00" vaporized="">
        <emissions CO_abs="27596.542076" CO2_abs="1421347.211237" HC_abs="459.363740" PMx_abs="136.026478" NOx_abs="3140.120830" fuel_abs="566.672925" electricity_abs="0"/>
    </tripinfo>
    <tripinfo id="1.17" depart="67.00" departLane="-gneE0_0" departPos="6.60" departSpeed="0.00" departDelay="26.20" arrival="386.00" arrivalLane="-gneE0_0" arrivalPos="10000.00" arrivalSpeed="32.89" duration="319.00" routeLength="9993.40" waitSteps="0" timeLoss="15.69" rerouteNo="0" devices="tripinfo_1.17 emissions_1.17" vType="car2" speedFactor="1.00" vaporized="">
        <emissions CO_abs="28022.401757" CO2_abs="1443312.295068" HC_abs="466.579233" PMx_abs="138.279983" NOx_abs="3189.439384" fuel_abs="575.430105" electricity_abs="0"/>
    </tripinfo>
    <tripinfo id="1.18" depart="71.00" departLane="-gneE0_0" departPos="6.60" departSpeed="0.00" departDelay="27.80" arrival="391.00" arrivalLane="-gneE0_0" arrivalPos="10000.00" arrivalSpeed="32.61" duration="320.00" routeLength="9993.40" waitSteps="0" timeLoss="16.23" rerouteNo="0" devices="tripinfo_1.18 emissions_1.18" vType="car2" speedFactor="1.00" vaporized="">
        <emissions CO_abs="26787.860459" CO2_abs="1379664.448059" HC_abs="446.323416" PMx_abs="132.038314" NOx_abs="3048.061698" fuel_abs="550.054521" electricity_abs="0"/>
    </tripinfo>
    <tripinfo id="1.19" depart="75.00" departLane="-gneE0_0" departPos="6.60" departSpeed="0.00" departDelay="29.40" arrival="393.00" arrivalLane="-gneE0_0" arrivalPos="10000.00" arrivalSpeed="32.63" duration="318.00" routeLength="9993.40" waitSteps="0" timeLoss="14.63" rerouteNo="0" devices="tripinfo_1.19 emissions_1.19" vType="car2" speedFactor="1.00" vaporized="">
        <emissions CO_abs="27743.048603" CO2_abs="1423821.074174" HC_abs="461.286867" PMx_abs="136.689881" NOx_abs="3149.106363" fuel_abs="567.659206" electricity_abs="0"/>
    </tripinfo>
    <tripinfo id="0.17" depart="74.00" departLane="gneE0_0" departPos="6.60" departSpeed="0.00" departDelay="33.20" arrival="395.00" arrivalLane="gneE0_0" arrivalPos="10000.00" arrivalSpeed="32.99" duration="321.00" routeLength="9993.40" waitSteps="0" timeLoss="17.61" rerouteNo="0" devices="tripinfo_0.17 emissions_0.17" vType="car2" speedFactor="1.00" vaporized="">
        <emissions CO_abs="27530.893619" CO2_abs="1419429.869227" HC_abs="459.202409" PMx_abs="136.182923" NOx_abs="3136.421756" fuel_abs="565.908458" electricity_abs="0"/>
    </tripinfo>
    <tripinfo id="0.18" depart="78.00" departLane="gneE0_0" departPos="6.60" departSpeed="0.00" departDelay="34.80" arrival="398.00" arrivalLane="gneE0_0" arrivalPos="10000.00" arrivalSpeed="32.59" duration="320.00" routeLength="9993.40" waitSteps="0" timeLoss="16.68" rerouteNo="0" devices="tripinfo_0.18 emissions_0.18" vType="car2" speedFactor="1.00" vaporized="">
        <emissions CO_abs="26176.543908" CO2_abs="1353635.123123" HC_abs="436.376574" PMx_abs="130.191295" NOx_abs="2990.353533" fuel_abs="539.676960" electricity_abs="0"/>
    </tripinfo>
    <tripinfo id="1.20" depart="78.00" departLane="-gneE0_0" departPos="6.60" departSpeed="0.00" departDelay="30.00" arrival="398.00" arrivalLane="-gneE0_0" arrivalPos="10000.00" arrivalSpeed="32.58" duration="320.00" routeLength="9993.40" waitSteps="0" timeLoss="16.75" rerouteNo="0" devices="tripinfo_1.20 emissions_1.20" vType="car2" speedFactor="1.00" vaporized="">
        <emissions CO_abs="26557.180305" CO2_abs="1366881.407284" HC_abs="443.320743" PMx_abs="131.801109" NOx_abs="3022.590785" fuel_abs="544.958031" electricity_abs="0"/>
    </tripinfo>
    <tripinfo id="0.19" depart="82.00" departLane="gneE0_0" departPos="6.60" departSpeed="0.00" departDelay="36.40" arrival="401.00" arrivalLane="gneE0_0" arrivalPos="10000.00" arrivalSpeed="32.64" duration="319.00" routeLength="9993.40" waitSteps="0" timeLoss="15.12" rerouteNo="0" devices="tripinfo_0.19 emissions_0.19" vType="car2" speedFactor="1.00" vaporized="">
        <emissions CO_abs="28806.696625" CO2_abs="1472715.388943" HC_abs="479.798386" PMx_abs="142.994154" NOx_abs="3263.509039" fuel_abs="587.152655" electricity_abs="0"/>
    </tripinfo>
    <tripinfo id="1.21" depart="83.00" departLane="-gneE0_0" departPos="6.60" departSpeed="0.00" departDelay="32.60" arrival="402.00" arrivalLane="-gneE0_0" arrivalPos="10000.00" arrivalSpeed="32.12" duration="319.00" routeLength="9993.40" waitSteps="0" timeLoss="15.53" rerouteNo="0" devices="tripinfo_1.21 emissions_1.21" vType="car2" speedFactor="1.00" vaporized="">
        <emissions CO_abs="24794.010912" CO2_abs="1278287.488435" HC_abs="414.045594" PMx_abs="123.075056" NOx_abs="2825.564838" fuel_abs="509.636774" electricity_abs="0"/>
    </tripinfo>
    <tripinfo id="0.20" depart="86.00" departLane="gneE0_0" departPos="6.60" departSpeed="0.00" departDelay="38.00" arrival="405.00" arrivalLane="gneE0_0" arrivalPos="10000.00" arrivalSpeed="32.25" duration="319.00" routeLength="9993.40" waitSteps="0" timeLoss="15.60" rerouteNo="0" devices="tripinfo_0.20 emissions_0.20" vType="car2" speedFactor="1.00" vaporized="">
        <emissions CO_abs="27752.766171" CO2_abs="1424890.023991" HC_abs="462.260194" PMx_abs="138.060227" NOx_abs="3154.480011" fuel_abs="568.085328" electricity_abs="0"/>
    </tripinfo>
    <tripinfo id="1.22" depart="87.00" departLane="-gneE0_0" departPos="6.60" departSpeed="0.00" departDelay="34.20" arrival="405.00" arrivalLane="-gneE0_0" arrivalPos="10000.00" arrivalSpeed="32.51" duration="318.00" routeLength="9993.40" waitSteps="0" timeLoss="14.89" rerouteNo="0" devices="tripinfo_1.22 emissions_1.22" vType="car2" speedFactor="1.00" vaporized="">
        <emissions CO_abs="27709.346323" CO2_abs="1421272.989607" HC_abs="460.092433" PMx_abs="136.855806" NOx_abs="3144.606991" fuel_abs="566.643340" electricity_abs="0"/>
    </tripinfo>
    <tripinfo id="0.21" depart="90.00" departLane="gneE0_0" departPos="6.60" departSpeed="0.00" departDelay="39.60" arrival="410.00" arrivalLane="gneE0_0" arrivalPos="10000.00" arrivalSpeed="32.31" duration="320.00" routeLength="9993.40" waitSteps="0" timeLoss="16.26" rerouteNo="0" devices="tripinfo_0.21 emissions_0.21" vType="car2" speedFactor="1.00" vaporized="">
        <emissions CO_abs="26793.076005" CO2_abs="1379995.083516" HC_abs="447.135839" PMx_abs="133.405452" NOx_abs="3052.415950" fuel_abs="550.186282" electricity_abs="0"/>
    </tripinfo>
    <tripinfo id="1.23" depart="91.00" departLane="-gneE0_0" departPos="6.60" departSpeed="0.00" departDelay="35.80" arrival="410.00" arrivalLane="-gneE0_0" arrivalPos="10000.00" arrivalSpeed="32.38" duration="319.00" routeLength="9993.40" waitSteps="0" timeLoss="15.68" rerouteNo="0" devices="tripinfo_1.23 emissions_1.23" vType="car2" speedFactor="1.00" vaporized="">
        <emissions CO_abs="25925.343436" CO2_abs="1332816.843886" HC_abs="432.468584" PMx_abs="128.589651" NOx_abs="2948.160479" fuel_abs="531.376930" electricity_abs="0"/>
    </tripinfo>
    <tripinfo id="1.24" depart="95.00" departLane="-gneE0_0" departPos="6.60" departSpeed="0.00" departDelay="37.40" arrival="414.00" arrivalLane="-gneE0_0" arrivalPos="10000.00" arrivalSpeed="32.60" duration="319.00" routeLength="9993.40" waitSteps="0" timeLoss="15.76" rerouteNo="0" devices="tripinfo_1.24 emissions_1.24" vType="car2" speedFactor="1.00" vaporized="">
        <emissions CO_abs="26225.335744" CO2_abs="1351154.948703" HC_abs="437.526667" PMx_abs="129.404738" NOx_abs="2985.335883" fuel_abs="538.688118" electricity_abs="0"/>
    </tripinfo>
    <tripinfo id="0.23" depart="97.00" departLane="gneE0_0" departPos="6.60" departSpeed="0.00" departDelay="41.80" arrival="417.00" arrivalLane="gneE0_0" arrivalPos="10000.00" arrivalSpeed="32.69" duration="320.00" routeLength="9993.40" waitSteps="0" timeLoss="16.30" rerouteNo="0" devices="tripinfo_0.23 emissions_0.23" vType="car2" speedFactor="1.00" vaporized="">
        <emissions CO_abs="28106.698985" CO2_abs="1444076.094792" HC_abs="467.959042" PMx_abs="139.940895" NOx_abs="3196.353611" fuel_abs="575.734586" electricity_abs="0"/>
    </tripinfo>
    <tripinfo id="0.25" depart="105.00" departLane="gneE0_0" departPos="6.60" departSpeed="0.00" departDelay="45.00" arrival="425.00" arrivalLane="gneE0_0" arrivalPos="10000.00" arrivalSpeed="32.25" duration="320.00" routeLength="9993.40" waitSteps="0" timeLoss="16.26" rerouteNo="0" devices="tripinfo_0.25 emissions_0.25" vType="car2" speedFactor="1.00" vaporized="">
        <emissions CO_abs="27432.835964" CO2_abs="1409631.237758" HC_abs="457.475894" PMx_abs="135.980047" NOx_abs="3118.350092" fuel_abs="562.001843" electricity_abs="0"/>
    </tripinfo>
    <tripinfo id="1.27" depart="107.00" departLane="-gneE0_0" departPos="6.60" departSpeed="0.00" departDelay="42.20" arrival="427.00" arrivalLane="-gneE0_0" arrivalPos="10000.00" arrivalSpeed="32.62" duration="320.00" routeLength="9993.40" waitSteps="0" timeLoss="16.86" rerouteNo="0" devices="tripinfo_1.27 emissions_1.27" vType="car2" speedFactor="1.00" vaporized="">
        <emissions CO_abs="27491.391388" CO2_abs="1421244.032217" HC_abs="457.863349" PMx_abs="135.297779" NOx_abs="3136.332554" fuel_abs="566.631805" electricity_abs="0"/>
    </tripinfo>
    <tripinfo id="0.26" depart="109.00" departLane="gneE0_0" departPos="6.60" departSpeed="0.00" departDelay="46.60" arrival="430.00" arrivalLane="gneE0_0" arrivalPos="10000.00" arrivalSpeed="32.11" duration="321.00" routeLength="9993.40" waitSteps="0" timeLoss="17.27" rerouteNo="0" devices="tripinfo_0.26 emissions_0.26" vType="car2" speedFactor="1.00" vaporized="">
        <emissions CO_abs="27125.637748" CO2_abs="1397779.930615" HC_abs="453.844949" PMx_abs="135.026599" NOx_abs="3091.131007" fuel_abs="557.276826" electricity_abs="0"/>
    </tripinfo>
    <tripinfo id="1.30" depart="120.00" departLane="-gneE0_0" departPos="6.60" departSpeed="0.00" departDelay="48.00" arrival="440.00" arrivalLane="-gneE0_0" arrivalPos="10000.00" arrivalSpeed="32.42" duration="320.00" routeLength="9993.40" waitSteps="0" timeLoss="16.95" rerouteNo="0" devices="tripinfo_1.30 emissions_1.30" vType="car2" speedFactor="1.00" vaporized="">
        <emissions CO_abs="26217.512746" CO2_abs="1352664.449220" HC_abs="438.397089" PMx_abs="130.658737" NOx_abs="2990.849162" fuel_abs="539.289879" electricity_abs="0"/>
    </tripinfo>
    <tripinfo id="0.28" depart="118.00" departLane="gneE0_0" departPos="6.60" departSpeed="0.00" departDelay="50.80" arrival="441.00" arrivalLane="gneE0_0" arrivalPos="10000.00" arrivalSpeed="32.84" duration="323.00" routeLength="9993.40" waitSteps="0" timeLoss="19.32" rerouteNo="0" devices="tripinfo_0.28 emissions_0.28" vType="car2" speedFactor="1.00" vaporized="">
        <emissions CO_abs="27777.682369" CO2_abs="1441152.446225" HC_abs="465.101483" PMx_abs="139.187155" NOx_abs="3183.637066" fuel_abs="574.568908" electricity_abs="0"/>
    </tripinfo>
    <tripinfo id="0.29" depart="122.00" departLane="gneE0_0" departPos="6.60" departSpeed="0.00" departDelay="52.40" arrival="442.00" arrivalLane="gneE0_1" arrivalPos="10000.00" arrivalSpeed="32.77" duration="320.00" routeLength="9993.40" waitSteps="0" timeLoss="16.91" rerouteNo="0" devices="tripinfo_0.29 emissions_0.29" vType="car2" speedFactor="1.00" vaporized="">
        <emissions CO_abs="27208.336731" CO2_abs="1401134.686654" HC_abs="456.157841" PMx_abs="136.340430" NOx_abs="3101.814697" fuel_abs="558.614252" electricity_abs="0"/>
    </tripinfo>
    <tripinfo id="0.22" depart="94.00" departLane="gneE0_0" departPos="6.60" departSpeed="0.00" departDelay="41.20" arrival="443.00" arrivalLane="gneE0_0" arrivalPos="10000.00" arrivalSpeed="29.53" duration="349.00" routeLength="9993.40" waitSteps="0" timeLoss="14.79" rerouteNo="0" devices="tripinfo_0.22 emissions_0.22" vType="car1" speedFactor="1.00" vaporized="">