<?xml version="1.0" encoding="UTF-8"?>

<!-- generated on Mon Oct 16 12:10:42 2017 by SUMO Version 0.30.0
<?xml version="1.0" encoding="UTF-8"?>

<configuration xmlns:xsi="http://www.w3.org/2001/XMLSchema-instance" xsi:noNamespaceSchemaLocation="http://sumo.dlr.de/xsd/sumoConfiguration.xsd">

    <input>
        <net-file value="network/highway.net.xml"/>
        <route-files value="network/highway.rou.xml"/>
    </input>

    <output>
        <netstate-dump value="network/../log/sumo/netstate.dump"/>
        <tripinfo-output value="network/../log/sumo/tripinfo"/>
        <tripinfo-output.write-unfinished value="false"/>
    </output>

    <time>
        <begin value="0"/>
        <end value="840"/>
    </time>

    <emissions>
        <device.emissions.probability value="1"/>
    </emissions>

    <random_number>
        <seed value="15295"/>
    </random_number>

</configuration>
-->

<tripinfos xmlns:xsi="http://www.w3.org/2001/XMLSchema-instance" xsi:noNamespaceSchemaLocation="http://sumo.dlr.de/xsd/tripinfo_file.xsd">
    <tripinfo id="0.0" depart="0.00" departLane="gneE0_0" departPos="6.60" departSpeed="0.00" departDelay="0.00" arrival="319.00" arrivalLane="gneE0_0" arrivalPos="10000.00" arrivalSpeed="32.79" duration="319.00" routeLength="9993.40" waitSteps="0" timeLoss="15.68" rerouteNo="0" devices="tripinfo_0.0 emissions_0.0" vType="car2" speedFactor="1.00" vaporized="">
        <emissions CO_abs="28596.748836" CO2_abs="1470646.776839" HC_abs="475.128214" PMx_abs="141.633650" NOx_abs="3252.526566" fuel_abs="586.328037" electricity_abs="0"/>
    </tripinfo>
    <tripinfo id="1.0" depart="0.00" departLane="-gneE0_0" departPos="6.60" departSpeed="0.00" departDelay="0.00" arrival="320.00" arrivalLane="-gneE0_0" arrivalPos="10000.00" arrivalSpeed="32.95" duration="320.00" routeLength="9993.40" waitSteps="0" timeLoss="16.28" rerouteNo="0" devices="tripinfo_1.0 emissions_1.0" vType="car2" speedFactor="1.00" vaporized="">
        <emissions CO_abs="26225.873752" CO2_abs="1354445.314062" HC_abs="438.230685" PMx_abs="129.553370" NOx_abs="2990.860981" fuel_abs="539.999931" electricity_abs="0"/>
    </tripinfo>
    <tripinfo id="0.1" depart="4.00" departLane="gneE0_0" departPos="6.60" departSpeed="0.00" departDelay="3.20" arrival="323.00" arrivalLane="gneE0_0" arrivalPos="10000.00" arrivalSpeed="32.65" duration="319.00" routeLength="9993.40" waitSteps="0" timeLoss="15.71" rerouteNo="0" devices="tripinfo_0.1 emissions_0.1" vType="car2" speedFactor="1.00" vaporized="">
        <emissions CO_abs="26375.023294" CO2_abs="1357638.884134" HC_abs="439.669414" PMx_abs="130.657671" NOx_abs="3001.650661" fuel_abs="541.273182" electricity_abs="0"/>
    </tripinfo>
    <tripinfo id="1.2" depart="7.00" departLane="-gneE0_0" departPos="6.60" departSpeed="0.00" departDelay="5.40" arrival="327.00" arrivalLane="-gneE0_0" arrivalPos="10000.00" arrivalSpeed="32.24" duration="320.00" routeLength="9993.40" waitSteps="1" timeLoss="16.26" rerouteNo="0" devices="tripinfo_1.2 emissions_1.2" vType="car2" speedFactor="1.00" vaporized="">
        <emissions CO_abs="27029.753179" CO2_abs="1388583.790303" HC_abs="451.182104" PMx_abs="133.814107" NOx_abs="3071.537137" fuel_abs="553.610480" electricity_abs="0"/>
    </tripinfo>
    <tripinfo id="0.2" depart="8.00" departLane="gneE0_0" departPos="6.60" departSpeed="0.00" departDelay="6.40" arrival="328.00" arrivalLane="gneE0_0" arrivalPos="10000.00" arrivalSpeed="32.53" duration="320.00" routeLength="9993.40" waitSteps="0" timeLoss="16.49" rerouteNo="0" devices="tripinfo_0.2 emissions_0.2" vType="car2" speedFactor="1.00" vaporized="">
        <emissions CO_abs="26015.626356" CO2_abs="1342239.812593" HC_abs="434.313122" PMx_abs="128.888236" NOx_abs="2965.589393" fuel_abs="535.133762" electricity_abs="0"/>
    </tripinfo>
    <tripinfo id="1.3" depart="12.00" departLane="-gneE0_0" departPos="6.60" departSpeed="0.00" departDelay="9.60" arrival="331.00" arrivalLane="-gneE0_0" arrivalPos="10000.00" arrivalSpeed="32.74" duration="319.00" routeLength="9993.40" waitSteps="0" timeLoss="15.48" rerouteNo="0" devices="tripinfo_1.3 emissions_1.3" vType="car2" speedFactor="1.00" vaporized="">
        <emissions CO_abs="26988.112079" CO2_abs="1387614.641840" HC_abs="449.938328" PMx_abs="134.191720" NOx_abs="3070.491503" fuel_abs="553.224108" electricity_abs="0"/>
    </tripinfo>
    <tripinfo id="0.4" depart="15.00" departLane="gneE0_0" departPos="6.60" departSpeed="0.00" departDelay="11.80" arrival="335.00" arrivalLane="gneE0_0" arrivalPos="10000.00" arrivalSpeed="32.97" duration="320.00" routeLength="9993.40" waitSteps="0" timeLoss="16.32" rerouteNo="0" devices="tripinfo_0.4 emissions_0.4" vType="car2" speedFactor="1.00" vaporized="">
        <emissions CO_abs="25825.919813" CO2_abs="1331880.778324" HC_abs="432.415926" PMx_abs="127.852704" NOx_abs="2942.986952" fuel_abs="531.003687" electricity_abs="0"/>
    </tripinfo>
    <tripinfo id="1.4" depart="16.00" departLane="-gneE0_0" departPos="6.60" departSpeed="0.00" departDelay="12.80" arrival="335.00" arrivalLane="-gneE0_0" arrivalPos="10000.00" arrivalSpeed="32.28" duration="319.00" routeLength="9993.40" waitSteps="0" timeLoss="15.67" rerouteNo="0" devices="tripinfo_1.4 emissions_1.4" vType="car2" speedFactor="1.00" vaporized="">
        <emissions CO_abs="27314.454493" CO2_abs="1407178.437354" HC_abs="455.651919" PMx_abs="135.401429" NOx_abs="3111.011909" fuel_abs="561.023950" electricity_abs="0"/>
    </tripinfo>
    <tripinfo id="1.5" depart="19.00" departLane="-gneE0_0" departPos="6.60" departSpeed="0.00" departDelay="15.00" arrival="339.00" arrivalLane="-gneE0_0" arrivalPos="10000.00" arrivalSpeed="32.68" duration="320.00" routeLength="9993.40" waitSteps="0" timeLoss="16.98" rerouteNo="0" devices="tripinfo_1.5 emissions_1.5" vType="car2" speedFactor="1.00" vaporized="">
        <emissions CO_abs="27358.243313" CO2_abs="1413015.540736" HC_abs="456.172927" PMx_abs="135.417668" NOx_abs="3120.865976" fuel_abs="563.351170" electricity_abs="0"/>
    </tripinfo>
    <tripinfo id="0.6" depart="23.00" departLane="gneE0_0" departPos="6.60" departSpeed="0.00" departDelay="18.20" arrival="342.00" arrivalLane="gneE0_0" arrivalPos="10000.00" arrivalSpeed="32.69" duration="319.00" routeLength="9993.40" waitSteps="0" timeLoss="15.08" rerouteNo="0" devices="tripinfo_0.6 emissions_0.6" vType="car2" speedFactor="1.00" vaporized="">
        <emissions CO_abs="27084.772533" CO2_abs="1391382.772074" HC_abs="451.341269" PMx_abs="134.401017" NOx_abs="3078.983338" fuel_abs="554.726418" electricity_abs="0"/>
    </tripinfo>
    <tripinfo id="1.6" depart="24.00" departLane="-gneE0_0" departPos="6.60" departSpeed="0.00" departDelay="19.20" arrival="344.00" arrivalLane="-gneE0_0" arrivalPos="10000.00" arrivalSpeed="32.52" duration="320.00" routeLength="9993.40" waitSteps="0" timeLoss="16.18" rerouteNo="0" devices="tripinfo_1.6 emissions_1.6" vType="car2" speedFactor="1.00" vaporized="">
        <emissions CO_abs="26477.147432" CO2_abs="1363819.775337" HC_abs="442.487368" PMx_abs="131.469847" NOx_abs="3015.642566" fuel_abs="543.737372" electricity_abs="0"/>
    </tripinfo>
    <tripinfo id="0.7" depart="27.00" departLane="gneE0_0" departPos="6.60" departSpeed="0.00" departDelay="21.40" arrival="346.00" arrivalLane="gneE0_0" arrivalPos="10000.00" arrivalSpeed="32.49" duration="319.00" routeLength="9993.40" waitSteps="0" timeLoss="16.02" rerouteNo="0" devices="tripinfo_0.7 emissions_0.7" vType="car2" speedFactor="1.00" vaporized="">
        <emissions CO_abs="27812.675260" CO2_abs="1428736.067204" HC_abs="463.127067" PMx_abs="138.414156" NOx_abs="3162.315540" fuel_abs="569.618711" electricity_abs="0"/>
    </tripinfo>
    <tripinfo id="0.8" depart="31.00" departLane="gneE0_0" departPos="6.60" departSpeed="0.00" departDelay="24.60" arrival="350.00" arrivalLane="gneE0_0" arrivalPos="10000.00" arrivalSpeed="32.70" duration="319.00" routeLength="9993.40" waitSteps="0" timeLoss="15.55" rerouteNo="0" devices="tripinfo_0.8 emissions_0.8" vType="car2" speedFactor="1.00" vaporized="">
        <emissions CO_abs="26670.336664" CO2_abs="1372320.802060" HC_abs="445.040300" PMx_abs="132.635319" NOx_abs="3036.009713" fuel_abs="547.126638" electricity_abs="0"/>
    </tripinfo>
    <tripinfo id="1.1" depart="4.00" departLane="-gneE0_0" departPos="6.60" departSpeed="0.00" departDelay="3.20" arrival="353.00" arrivalLane="-gneE0_0" arrivalPos="10000.00" arrivalSpeed="29.99" duration="349.00" routeLength="9993.40" waitSteps="0" timeLoss="14.85" rerouteNo="0" devices="tripinfo_1.1 emissions_1.1" vType="car1" speedFactor="1.00" vaporized="">
        <emissions CO_abs="21783.078882" CO2_abs="1271321.171862" HC_abs="385.604693" PMx_abs="119.379323" NOx_abs="2749.282002" fuel_abs="506.859040" electricity_abs="0"/>
    </tripinfo>
    <tripinfo id="1.8" depart="33.00" departLane="-gneE0_0" departPos="6.60" departSpeed="0.00" departDelay="26.60" arrival="355.00" arrivalLane="-gneE0_0" arrivalPos="10000.00" arrivalSpeed="32.40" duration="322.00" routeLength="9993.40" waitSteps="0" timeLoss="18.07" rerouteNo="0" devices="tripinfo_1.8 emissions_1.8" vType="car2" speedFactor="1.00" vaporized="">
        <emissions CO_abs="26714.661918" CO2_abs="1384439.322625" HC_abs="445.964323" PMx_abs="132.144963" NOx_abs="3054.096414" fuel_abs="551.958210" electricity_abs="0"/>
    </tripinfo>
    <tripinfo id="1.9" depart="37.00" departLane="-gneE0_0" departPos="6.60" departSpeed="0.00" departDelay="29.80" arrival="357.00" arrivalLane="-gneE0_0" arrivalPos="10000.00" arrivalSpeed="32.24" duration="320.00" routeLength="9993.40" waitSteps="0" timeLoss="16.24" rerouteNo="0" devices="tripinfo_1.9 emissions_1.9" vType="car2" speedFactor="1.00" vaporized="">
        <emissions CO_abs="27708.156842" CO2_abs="1427613.991973" HC_abs="461.863687" PMx_abs="136.436138" NOx_abs="3153.583496" fuel_abs="569.171380" electricity_abs="0"/>
    </tripinfo>
    <tripinfo id="0.10" depart="38.00" departLane="gneE0_0" departPos="6.60" departSpeed="0.00" departDelay="30.00" arrival="358.00" arrivalLane="gneE0_0" arrivalPos="10000.00" arrivalSpeed="32.42" duration="320.00" routeLength="9993.40" waitSteps="0" timeLoss="16.91" rerouteNo="0" devices="tripinfo_0.10 emissions_0.10" vType="car2" speedFactor="1.00" vaporized="">
        <emissions CO_abs="26999.333702" CO2_abs="1395679.556398" HC_abs="451.409204" PMx_abs="133.746630" NOx_abs="3082.165369" fuel_abs="556.439482" electricity_abs="0"/>
    </tripinfo>
    <tripinfo id="0.3" depart="12.00" departLane="gneE0_0" departPos="6.60" departSpeed="0.00" departDelay="9.60" arrival="360.00" arrivalLane="gneE0_0" arrivalPos="10000.00" arrivalSpeed="29.20" duration="348.00" routeLength="9993.40" waitSteps="0" timeLoss="14.71" rerouteNo="0" devices="tripinfo_0.3 emissions_0.3" vType="car1" speedFactor="1.00" vaporized="">
        <emissions CO_abs="21792.310388" CO2_abs="1273135.393821" HC_abs="386.013473" PMx_abs="119.318220" NOx_abs="2752.331156" fuel_abs="507.582342" electricity_abs="0"/>
    </tripinfo>
    <tripinfo id="0.11" depart="42.00" departLane="gneE0_0" departPos="6.60" departSpeed="0.00" departDelay="33.20" arrival="361.00" arrivalLane="gneE0_1" arrivalPos="10000.00" arrivalSpeed="32.89" duration="319.00" routeLength="9993.40" waitSteps="0" timeLoss="15.79" rerouteNo="0" devices="tripinfo_0.11 emissions_0.11" vType="car2" speedFactor="1.00" vaporized="">
        <emissions CO_abs="27490.897152" CO2_abs="1413717.082537" HC_abs="458.998630" PMx_abs="136.659487" NOx_abs="3128.080759" fuel_abs="563.630785" electricity_abs="0"/>
    </tripinfo>
    <tripinfo id="1.10" depart="41.00" departLane="-gneE0_0" departPos="6.60" departSpeed="0.00" departDelay="33.00" arrival="361.00" arrivalLane="-gneE0_0" arrivalPos="10000.00" arrivalSpeed="32.86" duration="320.00" routeLength="9993.40" waitSteps="0" timeLoss="16.30" rerouteNo="0" devices="tripinfo_1.10 emissions_1.10" vType="car2" speedFactor="1.00" vaporized="">
        <emissions CO_abs="28167.698364" CO2_abs="1449027.995985" HC_abs="469.173730" PMx_abs="139.799205" NOx_abs="3205.041120" fuel_abs="577.708853" electricity_abs="0"/>
    </tripinfo>
    <tripinfo id="1.11" depart="45.00" departLane="-gneE0_0" departPos="6.60" departSpeed="0.00" departDelay="36.20" arrival="364.00" arrivalLane="-gneE0_0" arrivalPos="10000.00" arrivalSpeed="32.98" duration="319.00" routeLength="9993.40" waitSteps="0" timeLoss="15.67" rerouteNo="0" devices="tripinfo_1.11 emissions_1.11" vType="car2" speedFactor="1.00" vaporized="">
        <emissions CO_abs="26433.626518" CO2_abs="1357429.738700" HC_abs="441.536012" PMx_abs="131.033247" NOx_abs="3003.470016" fuel_abs="541.189738" electricity_abs="0"/>
    </tripinfo>
    <tripinfo id="0.12" depart="46.00" departLane="gneE0_0" departPos="6.60" departSpeed="0.00" departDelay="36.40" arrival="365.00" arrivalLane="gneE0_0" arrivalPos="10000.00" arrivalSpeed="32.63" duration="319.00" routeLength="9993.40" waitSteps="0" timeLoss="15.41" rerouteNo="0" devices="tripinfo_0.12 emissions_0.12" vType="car2" speedFactor="1.00" vaporized="">
        <emissions CO_abs="27928.781365" CO2_abs="1435014.928571" HC_abs="465.580568" PMx_abs="138.669923" NOx_abs="3175.565276" fuel_abs="572.121989" electricity_abs="0"/>
    </tripinfo>
    <tripinfo id="0.5" depart="19.00" departLane="gneE0_0" departPos="6.60" departSpeed="0.00" departDelay="15.00" arrival="368.00" arrivalLane="gneE0_0" arrivalPos="10000.00" arrivalSpeed="29.99" duration="349.00" routeLength="9993.40" waitSteps="0" timeLoss="15.19" rerouteNo="0" devices="tripinfo_0.5 emissions_0.5" vType="car1" speedFactor="1.00" vaporized="">
        <emissions CO_abs="22804.118646" CO2_abs="1334993.517748" HC_abs="403.945571" PMx_abs="124.112027" NOx_abs="2882.622077" fuel_abs="532.244391" electricity_abs="0"/>
    </tripinfo>
    <tripinfo id="1.12" depart="49.00" departLane="-gneE0_0" departPos="6.60" departSpeed="0.00" departDelay="39.40" arrival="368.00" arrivalLane="-gneE0_0" arrivalPos="10000.00" arrivalSpeed="32.35" duration="319.00" routeLength="9993.40" waitSteps="0" timeLoss="15.85" rerouteNo="0" devices="tripinfo_1.12 emissions_1.12" vType="car2" speedFactor="1.00" vaporized="">
        <emissions CO_abs="26784.545815" CO2_abs="1380936.697900" HC_abs="446.186849" PMx_abs="132.509928" NOx_abs="3051.479180" fuel_abs="550.561749" electricity_abs="0"/>
    </tripinfo>
    <tripinfo id="0.13" depart="49.00" departLane="gneE0_0" departPos="6.60" departSpeed="0.00" departDelay="38.60" arrival="370.00" arrivalLane="gneE0_0" arrivalPos="10000.00" arrivalSpeed="32.91" duration="321.00" routeLength="9993.40" waitSteps="0" timeLoss="17.06" rerouteNo="0" devices="tripinfo_0.13 emissions_0.13" vType="car2" speedFactor="1.00" vaporized="">
        <emissions CO_abs="27973.295041" CO2_abs="1440934.748400" HC_abs="465.810352" PMx_abs="138.544777" NOx_abs="3185.039353" fuel_abs="574.482206" electricity_abs="0"/>
    </tripinfo>
    <tripinfo id="0.14" depart="54.00" departLane="gneE0_0" departPos="6.60" departSpeed="0.00" departDelay="42.80" arrival="373.00" arrivalLane="gneE0_0" arrivalPos="10000.00" arrivalSpeed="32.33" duration="319.00" routeLength="9993.40" waitSteps="0" timeLoss="15.81" rerouteNo="0" devices="tripinfo_0.14 emissions_0.14" vType="car2" speedFactor="1.00" vaporized="">
        <emissions CO_abs="26844.596568" CO2_abs="1379760.359634" HC_abs="447.272952" PMx_abs="133.371348" NOx_abs="3052.845248" fuel_abs="550.092722" electricity_abs="0"/>
    </tripinfo>
    <tripinfo id="0.15" depart="58.00" departLane="gneE0_0" departPos="6.60" departSpeed="0.00" departDelay="46.00" arrival="377.00" arrivalLane="gneE0_0" arrivalPos="10000.00" arrivalSpeed="32.15" duration="319.00" routeLength="9993.40" waitSteps="0" timeLoss="15.99" rerouteNo="0" devices="tripinfo_0.15 emissions_0.15" vType="car2" speedFactor="1.00" vaporized="">
        <emissions CO_abs="27397.396782" CO2_abs="1409233.644996" HC_abs="456.036937" PMx_abs="135.470861" NOx_abs="3115.755113" fuel_abs="561.843380" electricity_abs="0"/>
    </tripinfo>
    <tripinfo id="1.14" depart="57.00" departLane="-gneE0_0" departPos="6.60" departSpeed="0.00" departDelay="45.80" arrival="377.00" arrivalLane="-gneE0_0" arrivalPos="10000.00" arrivalSpeed="32.93" duration="320.00" routeLength="9993.40" waitSteps="0" timeLoss="16.50" rerouteNo="0" devices="tripinfo_1.14 emissions_1.14" vType="car2" speedFactor="1.00" vaporized="">
        <emissions CO_abs="26780.651567" CO2_abs="1385608.903224" HC_abs="446.157135" PMx_abs="132.198373" NOx_abs="3057.928479" fuel_abs="552.424530" electricity_abs="0"/>
    </tripinfo>
    <tripinfo id="1.15" depart="61.00" departLane="-gneE0_0" departPos="6.60" departSpeed="0.00" departDelay="49.00" arrival="381.00" arrivalLane="-gneE0_0" arrivalPos="10000.00" arrivalSpeed="32.29" duration="320.00" routeLength="9993.40" waitSteps="0" timeLoss="16.19" rerouteNo="0" devices="tripinfo_1.15 emissions_1.15" vType="car2" speedFactor="1.00" vaporized="">
        <emissions CO_abs="28223.763721" CO2_abs="1454558.780813" HC_abs="470.514651" PMx_abs="139.425171" NOx_abs="3214.060443" fuel_abs="579.913911" electricity_abs="0"/>
    </tripinfo>
    <tripinfo id="0.9" depart="34.00" departLane="gneE0_0" departPos="6.60" departSpeed="0.00" departDelay="26.80" arrival="383.00" arrivalLane="gneE0_0" arrivalPos="10000.00" arrivalSpeed="29.24" duration="349.00" routeLength="9993.40" waitSteps="0" timeLoss="15.57" rerouteNo="0" devices="tripinfo_0.9 emissions_0.9" vType="car1" speedFactor="1.00" vaporized="">
        <emissions CO_abs="22121.593661" CO2_abs="1288751.584253" HC_abs="392.337744" PMx_abs="120.697755" NOx_abs="2786.777951" fuel_abs="513.808281" electricity_abs="0"/>
    </tripinfo>
    <tripinfo id="1.16" depart="65.00" departLane="-gneE0_0" departPos="6.60" departSpeed="0.00" departDelay="52.20" arrival="385.00" arrivalLane="-gneE0_0" arrivalPos="10000.00" arrivalSpeed="32.92" duration="320.00" routeLength="9993.40" waitSteps="0" timeLoss="16.73" rerouteNo="0" devices="tripinfo_1.16 emissions_1.16" vType="car2" speedFactor="1.00" vaporized="">
        <emissions CO_abs="27032.391575" CO2_abs="1391161.383175" HC_abs="451.083956" PMx_abs="133.781317" NOx_abs="3075.439911" fuel_abs="554.638157" electricity_abs="0"/>
    </tripinfo>
    <tripinfo id="1.17" depart="69.00" departLane="-gneE0_0" departPos="6.60" departSpeed="0.00" departDelay="55.40" arrival="389.00" arrivalLane="-gneE0_0" arrivalPos="10000.00" arrivalSpeed="32.50" duration="320.00" routeLength="9993.40" waitSteps="0" timeLoss="16.88" rerouteNo="0" devices="tripinfo_1.17 emissions_1.17" vType="car2" speedFactor="1.00" vaporized="">
        <emissions CO_abs="27186.907161" CO2_abs="1400401.836740" HC_abs="453.387768" PMx_abs="134.790554" NOx_abs="3095.735971" fuel_abs="558.322222" electricity_abs="0"/>
    </tripinfo>
    <tripinfo id="1.18" depart="73.00" departLane="-gneE0_0" departPos="6.60" departSpeed="0.00" departDelay="58.60" arrival="394.00" arrivalLane="-gneE0_0" arrivalPos="10000.00" arrivalSpeed="32.69" duration="321.00" routeLength="9993.40" waitSteps="0" timeLoss="17.44" rerouteNo="0" devices="tripinfo_1.18 emissions_1.18" vType="car2" speedFactor="1.00" vaporized="">
        <emissions CO_abs="28384.809304" CO2_abs="1467121.695396" HC_abs="473.142807" PMx_abs="140.851053" NOx_abs="3240.661706" fuel_abs="584.922604" electricity_abs="0"/>
    </tripinfo>
    <tripinfo id="0.20" depart="80.00" departLane="gneE0_0" departPos="6.60" departSpeed="0.00" departDelay="64.00" arrival="401.00" arrivalLane="gneE0_0" arrivalPos="10000.00" arrivalSpeed="32.20" duration="321.00" routeLength="9993.40" waitSteps="0" timeLoss="17.93" rerouteNo="0" devices="tripinfo_0.20 emissions_0.20" vType="car2" speedFactor="1.00" vaporized="">
        <emissions CO_abs="27443.705592" CO2_abs="1413231.039039" HC_abs="458.039850" PMx_abs="136.416980" NOx_abs="3125.148341" fuel_abs="563.437036" electricity_abs="0"/>
    </tripinfo>
    <tripinfo id="0.21" depart="84.00" departLane="gneE0_0" departPos="6.60" departSpeed="0.00" departDelay="67.20" arrival="404.00" arrivalLane="gneE0_0" arrivalPos="10000.00" arrivalSpeed="32.52" duration="320.00" routeLength="9993.40" waitSteps="0" timeLoss="16.91" rerouteNo="0" devices="tripinfo_0.21 emissions_0.21" vType="car2" speedFactor="1.00" vaporized="">
        <emissions CO_abs="27551.641064" CO2_abs="1422562.574764" HC_abs="458.697154" PMx_abs="136.384741" NOx_abs="3142.238094" fuel_abs="567.157478" electricity_abs="0"/>
    </tripinfo>
    <tripinfo id="1.13" depart="53.00" departLane="-gneE0_0" departPos="6.60" departSpeed="0.00" departDelay="42.60" arrival="404.00" arrivalLane="-gneE0_0" arrivalPos="10000.00" arrivalSpeed="29.34" duration="351.00" routeLength="9993.40" waitSteps="0" timeLoss="16.84" rerouteNo="0" devices="tripinfo_1.13 emissions_1.13" vType="car1" speedFactor="1.00" vaporized="">
        <emissions CO_abs="23080.052684" CO2_abs="1344564.400825" HC_abs="410.312826" PMx_abs="126.262466" NOx_abs="2908.355383" fuel_abs="536.060064" electricity_abs="0"/>
    </tripinfo>
    <tripinfo id="0.22" depart="88.00" departLane="gneE0_0" departPos="6.60" departSpeed="0.00" departDelay="70.40" arrival="407.00" arrivalLane="gneE0_0" arrivalPos="10000.00" arrivalSpeed="32.25" duration="319.00" routeLength="9993.40" waitSteps="0" timeLoss="15.54" rerouteNo="0" devices="tripinfo_0.22 emissions_0.22" vType="car2" speedFactor="1.00" vaporized="">
        <emissions CO_abs="27598.679231" CO2_abs="1415910.979491" HC_abs="459.696834" PMx_abs="137.681606" NOx_abs="3136.034852" fuel_abs="564.505489" electricity_abs="0"/>
    </tripinfo>
    <tripinfo id="1.21" depart="87.00" departLane="-gneE0_0" departPos="6.60" departSpeed="0.00" departDelay="70.20" arrival="408.00" arrivalLane="-gneE0_0" arrivalPos="10000.00" arrivalSpeed="32.50" duration="321.00" routeLength="9993.40" waitSteps="0" timeLoss="17.14" rerouteNo="0" devices="tripinfo_1.21 emissions_1.21" vType="car2" speedFactor="1.00" vaporized="">
        <emissions CO_abs="27755.990786" CO2_abs="1428954.630123" HC_abs="463.188497" PMx_abs="137.062236" NOx_abs="3158.087744" fuel_abs="569.705839" electricity_abs="0"/>
    </tripinfo>
    <tripinfo id="1.22" depart="91.00" departLane="-gneE0_0" departPos="6.60" departSpeed="0.00" departDelay="73.40" arrival="411.00" arrivalLane="-gneE0_0" arrivalPos="10000.00" arrivalSpeed="32.94" duration="320.00" routeLength="9993.40" waitSteps="0" timeLoss="16.32" rerouteNo="0" devices="tripinfo_1.22 emissions_1.22" vType="car2" speedFactor="1.00" vaporized="">
        <emissions CO_abs="28219.905935" CO2_abs="1456648.645384" HC_abs="469.898483" PMx_abs="139.448546" NOx_abs="3217.486513" fuel_abs="580.747150" electricity_abs="0"/>
    </tripinfo>
    <tripinfo id="0.23" depart="91.00" departLane="gneE0_0" departPos="6.60" departSpeed="0.00" departDelay="72.60" arrival="412.00" arrivalLane="gneE0_0" arrivalPos="10000.00" arrivalSpeed="32.28" duration="321.00" routeLength="9993.40" waitSteps="1" timeLoss="17.28" rerouteNo="0" devices="tripinfo_0.23 emissions_0.23" vType="car2" speedFactor="1.00" vaporized="">
        <emissions CO_abs="27578.214340" CO2_abs="1417122.925079" HC_abs="460.447130" PMx_abs="137.015436" NOx_abs="3135.472449" fuel_abs="564.988659" electricity_abs="0"/>
    </tripinfo>
    <tripinfo id="1.23" depart="95.00" departLane="-gneE0_0" departPos="6.60" departSpeed="0.00" departDelay="76.60" arrival="415.00" arrivalLane="-gneE0_0" arrivalPos="10000.00" arrivalSpeed="32.59" duration="320.00" routeLength="9993.40" waitSteps="0" timeLoss="16.41" rerouteNo="0" devices="tripinfo_1.23 emissions_1.23" vType="car2" speedFactor="1.00" vaporized="">
        <emissions CO_abs="26454.106737" CO2_abs="1362370.623276" HC_abs="442.148626" PMx_abs="132.078604" NOx_abs="3014.309614" fuel_abs="543.159601" electricity_abs="0"/>
    </tripinfo>
    <tripinfo id="0.24" depart="96.00" departLane="gneE0_0" departPos="6.60" departSpeed="0.00" departDelay="76.80" arrival="416.00" arrivalLane="gneE0_1" arrivalPos="10000.00" arrivalSpeed="32.91" duration="320.00" routeLength="9993.40" waitSteps="0" timeLoss="16.76" rerouteNo="0" devices="tripinfo_0.24 emissions_0.24" vType="car2" speedFactor="1.00" vaporized="">
        <emissions CO_abs="27564.631324" CO2_abs="1420955.176011" HC_abs="459.813658" PMx_abs="136.815391" NOx_abs="3141.101400" fuel_abs="566.516567" electricity_abs="0"/>
    </tripinfo>
    <tripinfo id="0.17" depart="67.00" departLane="gneE0_0" departPos="6.60" departSpeed="0.00" departDelay="53.40" arrival="416.00" arrivalLane="gneE0_0" arrivalPos="10000.00" arrivalSpeed="29.60" duration="349.00" routeLength="9993.40" waitSteps="0" timeLoss="15.14" rerouteNo="0" devices="tripinfo_0.17 emissions_0.17" vType="car1" speedFactor="1.00" vaporized="">
        <emissions CO_abs="21343.672584" CO2_abs="1245449.457146" HC_abs="378.346839" PMx_abs="116.949905" NOx_abs="2693.226996" fuel_abs="496.544306" electricity_abs="0"/>
    </tripinfo>
    <tripinfo id="0.25" depart="100.00" departLane="gneE0_0" departPos="6.60" departSpeed="0.00" departDelay="80.00" arrival="419.00" arrivalLane="gneE0_1" arrivalPos="10000.00" arrivalSpeed="32.15" duration="319.00" routeLength="9993.40" waitSteps="0" timeLoss="15.71" rerouteNo="0" devices="tripinfo_0.25 emissions_0.25" vType="car2" speedFactor="1.00" vaporized="">
        <emissions CO_abs="27532.854066" CO2_abs="1412795.090713" HC_abs="458.951130" PMx_abs="137.155985" NOx_abs="3128.551739" fuel_abs="563.263212" electricity_abs="0"/>
    </tripinfo>
    <tripinfo id="0.18" depart="71.00" departLane="gneE0_0" departPos="6.60" departSpeed="0.00" departDelay="56.60" arrival="421.00" arrivalLane="gneE0_0" arrivalPos="10000.00" arrivalSpeed="29.50" duration="350.00" routeLength="9993.40" waitSteps="0" timeLoss="15.75" rerouteNo="0" devices="tripinfo_0.18 emissions_0.18" vType="car1" speedFactor="1.00" vaporized="">
        <emissions CO_abs="22993.919440" CO2_abs="1341767.127954" HC_abs="407.355210" PMx_abs="125.297404" NOx_abs="2900.061691" fuel_abs="534.944910" electricity_abs="0"/>
    </tripinfo>
    <tripinfo id="1.25" depart="102.00" departLane="-gneE0_0" departPos="6.60" departSpeed="0.00" departDelay="82.00" arrival="421.00" arrivalLane="-gneE0_0" arrivalPos="10000.00" arrivalSpeed="32.93" duration="319.00" routeLength="9993.40" waitSteps="0" timeLoss="15.99" rerouteNo="0" devices="tripinfo_1.25 emissions_1.25" vType="car2" speedFactor="1.00" vaporized="">
        <emissions CO_abs="27815.826648" CO2_abs="1429351.672397" HC_abs="464.774948" PMx_abs="138.088229" NOx_abs="3162.816835" fuel_abs="569.864076" electricity_abs="0"/>
    </tripinfo>
    <tripinfo id="0.26" depart="104.00" departLane="gneE0_0" departPos="6.60" departSpeed="0.00" departDelay="83.20" arrival="424.00" arrivalLane="gneE0_0" arrivalPos="10000.00" arrivalSpeed="32.10" duration="320.00" routeLength="9993.40" waitSteps="0" timeLoss="16.43" rerouteNo="0" devices="tripinfo_0.26 emissions_0.26" vType="car2" speedFactor="1.00" vaporized="">
        <emissions CO_abs="27996.686168" CO2_abs="1446620.649842" HC_abs="467.056982" PMx_abs="137.985376" NOx_abs="3193.417227" fuel_abs="576.749091" electricity_abs="0"/>
    </tripinfo>
    <tripinfo id="0.27" depart="107.00" departLane="gneE0_0" departPos="6.60" departSpeed="0.00" departDelay="85.40" arrival="428.00" arrivalLane="gneE0_0" arrivalPos="10000.00" arrivalSpeed="32.91" duration="321.00" routeLength="9993.40" waitSteps="0" timeLoss="17.33" rerouteNo="0" devices="tripinfo_0.27 emissions_0.27" vType="car2" speedFactor="1.00" vaporized="">
        <emissions CO_abs="26999.313563" CO2_abs="1391608.575031" HC_abs="450.181885" PMx_abs="133.604474" NOx_abs="3074.969159" fuel_abs="554.816477" electricity_abs="0"/>
    </tripinfo>
    <tripinfo id="1.27" depart="109.00" departLane="-gneE0_0" departPos="6.60" departSpeed="0.00" departDelay="87.40" arrival="430.00" arrivalLane="-gneE0_0" arrivalPos="10000.00" arrivalSpeed="32.49" duration="321.00" routeLength="9993.40" waitSteps="0" timeLoss="17.55" rerouteNo="0" devices="tripinfo_1.27 emissions_1.27" vType="car2" speedFactor="1.00" vaporized="">
        <emissions CO_abs="26234.185406" CO2_abs="1352640.948343" HC_abs="438.405772" PMx_abs="130.697354" NOx_abs="2990.674760" fuel_abs="539.280530" electricity_abs="0"/>
    </tripinfo>
    <tripinfo id="0.28" depart="112.00" departLane="gneE0_0" departPos="6.60" departSpeed="0.00" departDelay="89.60" arrival="432.00" arrivalLane="gneE0_0" arrivalPos="10000.00" arrivalSpeed="32.43" duration="320.00" routeLength="9993.40" waitSteps="0" timeLoss="16.66" rerouteNo="0" devices="tripinfo_0.28 emissions_0.28" vType="car2" speedFactor="1.00" vaporized="">
        <emissions CO_abs="26560.406317" CO2_abs="1368078.310184" HC_abs="443.978723" PMx_abs="132.017704" NOx_abs="3025.203429" fuel_abs="545.435192" electricity_abs="0"/>
    </tripinfo>
    <tripinfo id="0.29" depart="116.00" departLane="gneE0_0" departPos="6.60" departSpeed="0.00" departDelay="92.80" arrival="436.00" arrivalLane="gneE0_0" arrivalPos="10000.00" arrivalSpeed="32.54" duration="320.00" routeLength="9993.40" waitSteps="0" timeLoss="16.05" rerouteNo="0" devices="tripinfo_0.29 emissions_0.29" vType="car2" speedFactor="1.00" vaporized="">
        <emissions CO_abs="28514.530779" CO2_abs="1467991.964206" HC_abs="475.044964" PMx_abs="141.060761" NOx_abs="3245.379802" fuel_abs="585.269549" electricity_abs="0"/>
    </tripinfo>
    <tripinfo id="1.28" depart="113.00" departLane="-gneE0_0" departPos="6.60" departSpeed="0.00" departDelay="90.60" arrival="436.00" arrivalLane="-gneE0_0" arrivalPos="10000.00" arrivalSpeed="32.38" duration="323.00" routeLength="9993.40" waitSteps="0" timeLoss="19.53" rerouteNo="0" devices="tripinfo_1.28 emissions_1.28" vType="car2" speedFactor="1.00" vaporized="">
        <emissions CO_abs="27185.922754" CO2_abs="1408764.863428" HC_abs="457.149785" PMx_abs="136.628356" NOx_abs="3113.961093" fuel_abs="561.656297" electricity_abs="0"/>
    </tripinfo>