<?xml version="1.0" encoding="UTF-8"?>

<!-- generated on Wed Oct 11 10:04:55 2017 by SUMO Version 0.30.0
<?xml version="1.0" encoding="UTF-8"?>

<configuration xmlns:xsi="http://www.w3.org/2001/XMLSchema-instance" xsi:noNamespaceSchemaLocation="http://sumo.dlr.de/xsd/sumoConfiguration.xsd">

    <input>
        <net-file value="./network/highway.net.xml"/>
        <route-files value="./network/highway.rou.xml"/>
    </input>

    <output>
        <netstate-dump value="./network/../log/sumo/netstate.dump"/>
        <tripinfo-output value="./network/../log/sumo/tripinfo"/>
        <tripinfo-output.write-unfinished value="false"/>
    </output>

    <time>
        <begin value="0"/>
        <end value="840"/>
    </time>

    <emissions>
        <device.emissions.probability value="1"/>
    </emissions>

    <traci_server>
        <remote-port value="5500"/>
    </traci_server>

    <random_number>
        <seed value="14884"/>
    </random_number>

</configuration>
-->

<tripinfos xmlns:xsi="http://www.w3.org/2001/XMLSchema-instance" xsi:noNamespaceSchemaLocation="http://sumo.dlr.de/xsd/tripinfo_file.xsd">
    <tripinfo id="1.0" depart="0.00" departLane="-gneE0_0" departPos="6.60" departSpeed="0.00" departDelay="0.00" arrival="319.00" arrivalLane="-gneE0_0" arrivalPos="10000.00" arrivalSpeed="32.43" duration="319.00" routeLength="9993.40" waitSteps="0" timeLoss="15.26" rerouteNo="0" devices="tripinfo_1.0 emissions_1.0" vType="car2" speedFactor="1.00" vaporized="">
        <emissions CO_abs="27739.638315" CO2_abs="1426231.782960" HC_abs="461.652078" PMx_abs="136.991873" NOx_abs="3153.578253" fuel_abs="568.620317" electricity_abs="0"/>
    </tripinfo>
    <tripinfo id="0.0" depart="0.00" departLane="gneE0_0" departPos="6.60" departSpeed="0.00" departDelay="0.00" arrival="320.00" arrivalLane="gneE0_0" arrivalPos="10000.00" arrivalSpeed="32.76" duration="320.00" routeLength="9993.40" waitSteps="0" timeLoss="16.20" rerouteNo="0" devices="tripinfo_0.0 emissions_0.0" vType="car2" speedFactor="1.00" vaporized="">
        <emissions CO_abs="25057.206886" CO2_abs="1294863.670491" HC_abs="419.062159" PMx_abs="123.802535" NOx_abs="2858.716160" fuel_abs="516.245487" electricity_abs="0"/>
    </tripinfo>
    <tripinfo id="0.1" depart="4.00" departLane="gneE0_0" departPos="6.60" departSpeed="0.00" departDelay="2.80" arrival="323.00" arrivalLane="gneE0_0" arrivalPos="10000.00" arrivalSpeed="32.18" duration="319.00" routeLength="9993.40" waitSteps="0" timeLoss="15.94" rerouteNo="0" devices="tripinfo_0.1 emissions_0.1" vType="car2" speedFactor="1.00" vaporized="">
        <emissions CO_abs="26735.902947" CO2_abs="1379443.480712" HC_abs="445.593181" PMx_abs="131.905306" NOx_abs="3046.603115" fuel_abs="549.966425" electricity_abs="0"/>
    </tripinfo>
    <tripinfo id="1.1" depart="4.00" departLane="-gneE0_0" departPos="6.60" departSpeed="0.00" departDelay="2.80" arrival="323.00" arrivalLane="-gneE0_0" arrivalPos="10000.00" arrivalSpeed="32.78" duration="319.00" routeLength="9993.40" waitSteps="0" timeLoss="15.41" rerouteNo="0" devices="tripinfo_1.1 emissions_1.1" vType="car2" speedFactor="1.00" vaporized="">
        <emissions CO_abs="28276.086504" CO2_abs="1452695.474785" HC_abs="469.004568" PMx_abs="139.395542" NOx_abs="3211.904408" fuel_abs="579.171125" electricity_abs="0"/>
    </tripinfo>
    <tripinfo id="1.2" depart="8.00" departLane="-gneE0_0" departPos="6.60" departSpeed="0.00" departDelay="5.60" arrival="327.00" arrivalLane="-gneE0_0" arrivalPos="10000.00" arrivalSpeed="32.55" duration="319.00" routeLength="9993.40" waitSteps="0" timeLoss="15.40" rerouteNo="0" devices="tripinfo_1.2 emissions_1.2" vType="car2" speedFactor="1.00" vaporized="">
        <emissions CO_abs="27008.443851" CO2_abs="1387542.495544" HC_abs="449.268028" PMx_abs="133.130989" NOx_abs="3067.849426" fuel_abs="553.195407" electricity_abs="0"/>
    </tripinfo>
    <tripinfo id="1.3" depart="12.00" departLane="-gneE0_0" departPos="6.60" departSpeed="0.00" departDelay="8.40" arrival="331.00" arrivalLane="-gneE0_0" arrivalPos="10000.00" arrivalSpeed="32.69" duration="319.00" routeLength="9993.40" waitSteps="0" timeLoss="15.82" rerouteNo="0" devices="tripinfo_1.3 emissions_1.3" vType="car2" speedFactor="1.00" vaporized="">
        <emissions CO_abs="28140.704291" CO2_abs="1448186.941475" HC_abs="467.660661" PMx_abs="138.895146" NOx_abs="3200.868519" fuel_abs="577.373600" electricity_abs="0"/>
    </tripinfo>
    <tripinfo id="0.3" depart="12.00" departLane="gneE0_0" departPos="6.60" departSpeed="0.00" departDelay="8.40" arrival="332.00" arrivalLane="gneE0_0" arrivalPos="10000.00" arrivalSpeed="32.20" duration="320.00" routeLength="9993.40" waitSteps="0" timeLoss="16.64" rerouteNo="0" devices="tripinfo_0.3 emissions_0.3" vType="car2" speedFactor="1.00" vaporized="">
        <emissions CO_abs="26501.764881" CO2_abs="1366489.610380" HC_abs="442.262285" PMx_abs="131.305661" NOx_abs="3019.650749" fuel_abs="544.801849" electricity_abs="0"/>
    </tripinfo>
    <tripinfo id="1.4" depart="16.00" departLane="-gneE0_0" departPos="6.60" departSpeed="0.00" departDelay="11.20" arrival="335.00" arrivalLane="-gneE0_0" arrivalPos="10000.00" arrivalSpeed="32.53" duration="319.00" routeLength="9993.40" waitSteps="0" timeLoss="15.89" rerouteNo="0" devices="tripinfo_1.4 emissions_1.4" vType="car2" speedFactor="1.00" vaporized="">
        <emissions CO_abs="26424.068155" CO2_abs="1361841.436834" HC_abs="440.077343" PMx_abs="130.623970" NOx_abs="3009.234770" fuel_abs="542.948719" electricity_abs="0"/>
    </tripinfo>
    <tripinfo id="0.5" depart="19.00" departLane="gneE0_0" departPos="6.60" departSpeed="0.00" departDelay="13.00" arrival="338.00" arrivalLane="gneE0_0" arrivalPos="10000.00" arrivalSpeed="32.68" duration="319.00" routeLength="9993.40" waitSteps="0" timeLoss="15.98" rerouteNo="0" devices="tripinfo_0.5 emissions_0.5" vType="car2" speedFactor="1.00" vaporized="">
        <emissions CO_abs="28076.706767" CO2_abs="1444721.145501" HC_abs="466.900455" PMx_abs="138.735146" NOx_abs="3193.783832" fuel_abs="575.991814" electricity_abs="0"/>
    </tripinfo>
    <tripinfo id="1.5" depart="20.00" departLane="-gneE0_0" departPos="6.60" departSpeed="0.00" departDelay="14.00" arrival="339.00" arrivalLane="-gneE0_0" arrivalPos="10000.00" arrivalSpeed="32.36" duration="319.00" routeLength="9993.40" waitSteps="0" timeLoss="15.99" rerouteNo="0" devices="tripinfo_1.5 emissions_1.5" vType="car2" speedFactor="1.00" vaporized="">
        <emissions CO_abs="26775.001078" CO2_abs="1379113.544586" HC_abs="444.910463" PMx_abs="132.151682" NOx_abs="3047.129204" fuel_abs="549.834935" electricity_abs="0"/>
    </tripinfo>
    <tripinfo id="0.6" depart="23.00" departLane="gneE0_0" departPos="6.60" departSpeed="0.00" departDelay="15.80" arrival="342.00" arrivalLane="gneE0_0" arrivalPos="10000.00" arrivalSpeed="32.77" duration="319.00" routeLength="9993.40" waitSteps="0" timeLoss="15.12" rerouteNo="0" devices="tripinfo_0.6 emissions_0.6" vType="car2" speedFactor="1.00" vaporized="">
        <emissions CO_abs="26174.053352" CO2_abs="1347587.234320" HC_abs="436.929508" PMx_abs="129.521861" NOx_abs="2979.203782" fuel_abs="537.265689" electricity_abs="0"/>
    </tripinfo>
    <tripinfo id="0.7" depart="26.00" departLane="gneE0_0" departPos="6.60" departSpeed="0.00" departDelay="17.60" arrival="346.00" arrivalLane="gneE0_0" arrivalPos="10000.00" arrivalSpeed="32.88" duration="320.00" routeLength="9993.40" waitSteps="1" timeLoss="16.47" rerouteNo="0" devices="tripinfo_0.7 emissions_0.7" vType="car2" speedFactor="1.00" vaporized="">
        <emissions CO_abs="28547.534567" CO2_abs="1469264.134839" HC_abs="474.992159" PMx_abs="140.948671" NOx_abs="3247.465677" fuel_abs="585.776783" electricity_abs="0"/>
    </tripinfo>
    <tripinfo id="0.8" depart="30.00" departLane="gneE0_0" departPos="6.60" departSpeed="0.00" departDelay="20.40" arrival="350.00" arrivalLane="gneE0_0" arrivalPos="10000.00" arrivalSpeed="32.65" duration="320.00" routeLength="9993.40" waitSteps="0" timeLoss="16.21" rerouteNo="0" devices="tripinfo_0.8 emissions_0.8" vType="car2" speedFactor="1.00" vaporized="">
        <emissions CO_abs="26805.524807" CO2_abs="1381918.275969" HC_abs="446.771232" PMx_abs="132.467733" NOx_abs="3053.283865" fuel_abs="550.953085" electricity_abs="0"/>
    </tripinfo>
    <tripinfo id="1.8" depart="31.00" departLane="-gneE0_0" departPos="6.60" departSpeed="0.00" departDelay="21.40" arrival="350.00" arrivalLane="-gneE0_0" arrivalPos="10000.00" arrivalSpeed="32.12" duration="319.00" routeLength="9993.40" waitSteps="0" timeLoss="15.70" rerouteNo="0" devices="tripinfo_1.8 emissions_1.8" vType="car2" speedFactor="1.00" vaporized="">
        <emissions CO_abs="26655.404042" CO2_abs="1374163.547775" HC_abs="444.606220" PMx_abs="131.754361" NOx_abs="3036.331075" fuel_abs="547.861355" electricity_abs="0"/>
    </tripinfo>
    <tripinfo id="0.9" depart="34.00" departLane="gneE0_0" departPos="6.60" departSpeed="0.00" departDelay="23.20" arrival="353.00" arrivalLane="gneE0_0" arrivalPos="10000.00" arrivalSpeed="32.40" duration="319.00" routeLength="9993.40" waitSteps="0" timeLoss="15.44" rerouteNo="0" devices="tripinfo_0.9 emissions_0.9" vType="car2" speedFactor="1.00" vaporized="">
        <emissions CO_abs="28468.570044" CO2_abs="1465436.376006" HC_abs="473.828362" PMx_abs="140.706735" NOx_abs="3239.615499" fuel_abs="584.250688" electricity_abs="0"/>
    </tripinfo>
    <tripinfo id="0.10" depart="37.00" departLane="gneE0_0" departPos="6.60" departSpeed="0.00" departDelay="25.00" arrival="356.00" arrivalLane="gneE0_1" arrivalPos="10000.00" arrivalSpeed="32.75" duration="319.00" routeLength="9993.40" waitSteps="0" timeLoss="15.98" rerouteNo="0" devices="tripinfo_0.10 emissions_0.10" vType="car2" speedFactor="1.00" vaporized="">
        <emissions CO_abs="27598.699341" CO2_abs="1418654.097313" HC_abs="459.206882" PMx_abs="136.314846" NOx_abs="3136.862499" fuel_abs="565.599199" electricity_abs="0"/>
    </tripinfo>
    <tripinfo id="0.2" depart="8.00" departLane="gneE0_0" departPos="6.60" departSpeed="0.00" departDelay="5.60" arrival="357.00" arrivalLane="gneE0_0" arrivalPos="10000.00" arrivalSpeed="29.15" duration="349.00" routeLength="9993.40" waitSteps="0" timeLoss="15.40" rerouteNo="0" devices="tripinfo_0.2 emissions_0.2" vType="car1" speedFactor="1.00" vaporized="">
        <emissions CO_abs="23464.041821" CO2_abs="1369861.325970" HC_abs="414.544944" PMx_abs="128.204364" NOx_abs="2961.026645" fuel_abs="546.145753" electricity_abs="0"/>
    </tripinfo>
    <tripinfo id="1.10" depart="38.00" departLane="-gneE0_0" departPos="6.60" departSpeed="0.00" departDelay="26.00" arrival="357.00" arrivalLane="-gneE0_0" arrivalPos="10000.00" arrivalSpeed="32.26" duration="319.00" routeLength="9993.40" waitSteps="0" timeLoss="15.91" rerouteNo="0" devices="tripinfo_1.10 emissions_1.10" vType="car2" speedFactor="1.00" vaporized="">
        <emissions CO_abs="25917.656194" CO2_abs="1333368.914794" HC_abs="433.058545" PMx_abs="128.895034" NOx_abs="2949.793368" fuel_abs="531.596999" electricity_abs="0"/>
    </tripinfo>
    <tripinfo id="0.11" depart="42.00" departLane="gneE0_0" departPos="6.60" departSpeed="0.00" departDelay="28.80" arrival="361.00" arrivalLane="gneE0_0" arrivalPos="10000.00" arrivalSpeed="32.24" duration="319.00" routeLength="9993.40" waitSteps="0" timeLoss="15.60" rerouteNo="0" devices="tripinfo_0.11 emissions_0.11" vType="car2" speedFactor="1.00" vaporized="">
        <emissions CO_abs="27204.558576" CO2_abs="1401543.577964" HC_abs="453.064203" PMx_abs="134.302778" NOx_abs="3097.036309" fuel_abs="558.777450" electricity_abs="0"/>
    </tripinfo>
    <tripinfo id="1.11" depart="42.00" departLane="-gneE0_0" departPos="6.60" departSpeed="0.00" departDelay="28.80" arrival="362.00" arrivalLane="-gneE0_0" arrivalPos="10000.00" arrivalSpeed="32.93" duration="320.00" routeLength="9993.40" waitSteps="0" timeLoss="16.17" rerouteNo="0" devices="tripinfo_1.11 emissions_1.11" vType="car2" speedFactor="1.00" vaporized="">
        <emissions CO_abs="27266.391163" CO2_abs="1403858.319828" HC_abs="453.774337" PMx_abs="134.906978" NOx_abs="3103.249283" fuel_abs="559.700317" electricity_abs="0"/>
    </tripinfo>
    <tripinfo id="0.4" depart="16.00" departLane="gneE0_0" departPos="6.60" departSpeed="0.00" departDelay="11.20" arrival="364.00" arrivalLane="gneE0_0" arrivalPos="10000.00" arrivalSpeed="29.94" duration="348.00" routeLength="9993.40" waitSteps="0" timeLoss="14.51" rerouteNo="0" devices="tripinfo_0.4 emissions_0.4" vType="car1" speedFactor="1.00" vaporized="">
        <emissions CO_abs="22366.350900" CO2_abs="1308930.591674" HC_abs="396.015672" PMx_abs="121.919519" NOx_abs="2827.164094" fuel_abs="521.853445" electricity_abs="0"/>
    </tripinfo>
    <tripinfo id="1.12" depart="46.00" departLane="-gneE0_0" departPos="6.60" departSpeed="0.00" departDelay="31.60" arrival="366.00" arrivalLane="-gneE0_0" arrivalPos="10000.00" arrivalSpeed="32.45" duration="320.00" routeLength="9993.40" waitSteps="0" timeLoss="16.73" rerouteNo="0" devices="tripinfo_1.12 emissions_1.12" vType="car2" speedFactor="1.00" vaporized="">
        <emissions CO_abs="27628.226393" CO2_abs="1425211.604138" HC_abs="460.872908" PMx_abs="136.845919" NOx_abs="3149.184226" fuel_abs="568.213561" electricity_abs="0"/>
    </tripinfo>
    <tripinfo id="1.13" depart="50.00" departLane="-gneE0_0" departPos="6.60" departSpeed="0.00" departDelay="34.40" arrival="370.00" arrivalLane="-gneE0_0" arrivalPos="10000.00" arrivalSpeed="32.55" duration="320.00" routeLength="9993.40" waitSteps="0" timeLoss="16.08" rerouteNo="0" devices="tripinfo_1.13 emissions_1.13" vType="car2" speedFactor="1.00" vaporized="">
        <emissions CO_abs="27704.763669" CO2_abs="1430355.413513" HC_abs="461.351524" PMx_abs="136.630760" NOx_abs="3158.411274" fuel_abs="570.264381" electricity_abs="0"/>
    </tripinfo>
    <tripinfo id="0.13" depart="51.00" departLane="gneE0_0" departPos="6.60" departSpeed="0.00" departDelay="35.40" arrival="371.00" arrivalLane="gneE0_0" arrivalPos="10000.00" arrivalSpeed="32.63" duration="320.00" routeLength="9993.40" waitSteps="0" timeLoss="16.71" rerouteNo="0" devices="tripinfo_0.13 emissions_0.13" vType="car2" speedFactor="1.00" vaporized="">
        <emissions CO_abs="26675.251662" CO2_abs="1373921.310838" HC_abs="444.987727" PMx_abs="131.880645" NOx_abs="3036.440243" fuel_abs="547.764772" electricity_abs="0"/>
    </tripinfo>
    <tripinfo id="1.14" depart="53.00" departLane="-gneE0_0" departPos="6.60" departSpeed="0.00" departDelay="36.20" arrival="373.00" arrivalLane="-gneE0_1" arrivalPos="10000.00" arrivalSpeed="32.30" duration="320.00" routeLength="9993.40" waitSteps="0" timeLoss="16.91" rerouteNo="0" devices="tripinfo_1.14 emissions_1.14" vType="car2" speedFactor="1.00" vaporized="">
        <emissions CO_abs="28645.451428" CO2_abs="1469005.106305" HC_abs="477.730849" PMx_abs="142.362468" NOx_abs="3252.463192" fuel_abs="585.673418" electricity_abs="0"/>
    </tripinfo>
    <tripinfo id="1.6" depart="24.00" departLane="-gneE0_0" departPos="6.60" departSpeed="0.00" departDelay="16.80" arrival="373.00" arrivalLane="-gneE0_0" arrivalPos="10000.00" arrivalSpeed="29.23" duration="349.00" routeLength="9993.40" waitSteps="0" timeLoss="14.91" rerouteNo="0" devices="tripinfo_1.6 emissions_1.6" vType="car1" speedFactor="1.00" vaporized="">
        <emissions CO_abs="21918.369251" CO2_abs="1277515.210677" HC_abs="389.028127" PMx_abs="119.791697" NOx_abs="2762.972040" fuel_abs="509.328467" electricity_abs="0"/>
    </tripinfo>
    <tripinfo id="0.14" depart="55.00" departLane="gneE0_0" departPos="6.60" departSpeed="0.00" departDelay="38.20" arrival="375.00" arrivalLane="gneE0_0" arrivalPos="10000.00" arrivalSpeed="32.68" duration="320.00" routeLength="9993.40" waitSteps="0" timeLoss="16.87" rerouteNo="0" devices="tripinfo_0.14 emissions_0.14" vType="car2" speedFactor="1.00" vaporized="">
        <emissions CO_abs="26700.922605" CO2_abs="1377305.097119" HC_abs="444.638468" PMx_abs="132.303423" NOx_abs="3043.293587" fuel_abs="549.113890" electricity_abs="0"/>
    </tripinfo>
    <tripinfo id="1.7" depart="27.00" departLane="-gneE0_0" departPos="6.60" departSpeed="0.00" departDelay="18.60" arrival="376.00" arrivalLane="-gneE0_0" arrivalPos="10000.00" arrivalSpeed="29.08" duration="349.00" routeLength="9993.40" waitSteps="0" timeLoss="15.15" rerouteNo="0" devices="tripinfo_1.7 emissions_1.7" vType="car1" speedFactor="1.00" vaporized="">
        <emissions CO_abs="23077.822528" CO2_abs="1344863.435740" HC_abs="408.390721" PMx_abs="125.747439" NOx_abs="2907.642450" fuel_abs="536.179381" electricity_abs="0"/>
    </tripinfo>
    <tripinfo id="0.15" depart="59.00" departLane="gneE0_0" departPos="6.60" departSpeed="0.00" departDelay="41.00" arrival="378.00" arrivalLane="gneE0_0" arrivalPos="10000.00" arrivalSpeed="32.85" duration="319.00" routeLength="9993.40" waitSteps="0" timeLoss="15.94" rerouteNo="0" devices="tripinfo_0.15 emissions_0.15" vType="car2" speedFactor="1.00" vaporized="">
        <emissions CO_abs="28566.932029" CO2_abs="1466268.596723" HC_abs="476.056821" PMx_abs="141.464357" NOx_abs="3244.539092" fuel_abs="584.582433" electricity_abs="0"/>
    </tripinfo>
    <tripinfo id="1.15" depart="57.00" departLane="-gneE0_0" departPos="6.60" departSpeed="0.00" departDelay="39.00" arrival="378.00" arrivalLane="-gneE0_0" arrivalPos="10000.00" arrivalSpeed="32.29" duration="321.00" routeLength="9993.40" waitSteps="0" timeLoss="17.32" rerouteNo="0" devices="tripinfo_1.15 emissions_1.15" vType="car2" speedFactor="1.00" vaporized="">
        <emissions CO_abs="27028.480879" CO2_abs="1392327.578836" HC_abs="450.561533" PMx_abs="134.245606" NOx_abs="3078.278600" fuel_abs="555.103128" electricity_abs="0"/>
    </tripinfo>
    <tripinfo id="1.16" depart="62.00" departLane="-gneE0_0" departPos="6.60" departSpeed="0.00" departDelay="42.80" arrival="381.00" arrivalLane="-gneE0_0" arrivalPos="10000.00" arrivalSpeed="32.13" duration="319.00" routeLength="9993.40" waitSteps="0" timeLoss="15.83" rerouteNo="0" devices="tripinfo_1.16 emissions_1.16" vType="car2" speedFactor="1.00" vaporized="">
        <emissions CO_abs="26306.813199" CO2_abs="1356334.024092" HC_abs="437.234826" PMx_abs="129.869821" NOx_abs="2996.259358" fuel_abs="540.753031" electricity_abs="0"/>
    </tripinfo>
    <tripinfo id="1.9" depart="34.00" departLane="-gneE0_0" departPos="6.60" departSpeed="0.00" departDelay="23.20" arrival="383.00" arrivalLane="-gneE0_0" arrivalPos="10000.00" arrivalSpeed="29.86" duration="349.00" routeLength="9993.40" waitSteps="0" timeLoss="15.66" rerouteNo="0" devices="tripinfo_1.9 emissions_1.9" vType="car1" speedFactor="1.00" vaporized="">
        <emissions CO_abs="23525.577105" CO2_abs="1377495.488078" HC_abs="416.524751" PMx_abs="128.065889" NOx_abs="2974.157530" fuel_abs="549.189382" electricity_abs="0"/>
    </tripinfo>
    <tripinfo id="1.17" depart="66.00" departLane="-gneE0_0" departPos="6.60" departSpeed="0.00" departDelay="45.60" arrival="386.00" arrivalLane="-gneE0_0" arrivalPos="10000.00" arrivalSpeed="32.13" duration="320.00" routeLength="9993.40" waitSteps="0" timeLoss="16.31" rerouteNo="0" devices="tripinfo_1.17 emissions_1.17" vType="car2" speedFactor="1.00" vaporized="">
        <emissions CO_abs="27209.895013" CO2_abs="1403420.458518" HC_abs="453.052450" PMx_abs="134.394402" NOx_abs="3100.047356" fuel_abs="559.525756" electricity_abs="0"/>
    </tripinfo>
    <tripinfo id="1.18" depart="70.00" departLane="-gneE0_0" departPos="6.60" departSpeed="0.00" departDelay="48.40" arrival="389.00" arrivalLane="-gneE0_0" arrivalPos="10000.00" arrivalSpeed="32.62" duration="319.00" routeLength="9993.40" waitSteps="0" timeLoss="15.67" rerouteNo="0" devices="tripinfo_1.18 emissions_1.18" vType="car2" speedFactor="1.00" vaporized="">
        <emissions CO_abs="28427.173526" CO2_abs="1460326.323059" HC_abs="471.520236" PMx_abs="140.239475" NOx_abs="3229.119965" fuel_abs="582.213445" electricity_abs="0"/>
    </tripinfo>
    <tripinfo id="1.19" depart="74.00" departLane="-gneE0_0" departPos="6.60" departSpeed="0.00" departDelay="51.20" arrival="392.00" arrivalLane="-gneE0_0" arrivalPos="10000.00" arrivalSpeed="32.75" duration="318.00" routeLength="9993.40" waitSteps="0" timeLoss="14.96" rerouteNo="0" devices="tripinfo_1.19 emissions_1.19" vType="car2" speedFactor="1.00" vaporized="">
        <emissions CO_abs="27561.744903" CO2_abs="1417259.809329" HC_abs="457.094315" PMx_abs="135.678738" NOx_abs="3132.368937" fuel_abs="565.043389" electricity_abs="0"/>
    </tripinfo>
    <tripinfo id="0.17" depart="73.00" departLane="gneE0_0" departPos="6.60" departSpeed="0.00" departDelay="52.60" arrival="394.00" arrivalLane="gneE0_0" arrivalPos="10000.00" arrivalSpeed="32.26" duration="321.00" routeLength="9993.40" waitSteps="0" timeLoss="17.25" rerouteNo="0" devices="tripinfo_0.17 emissions_0.17" vType="car2" speedFactor="1.00" vaporized="">
        <emissions CO_abs="27009.755368" CO2_abs="1395799.690880" HC_abs="449.856756" PMx_abs="133.349285" NOx_abs="3081.114825" fuel_abs="556.487470" electricity_abs="0"/>
    </tripinfo>
    <tripinfo id="1.20" depart="78.00" departLane="-gneE0_0" departPos="6.60" departSpeed="0.00" departDelay="54.00" arrival="396.00" arrivalLane="-gneE0_0" arrivalPos="10000.00" arrivalSpeed="32.32" duration="318.00" routeLength="9993.40" waitSteps="0" timeLoss="14.93" rerouteNo="0" devices="tripinfo_1.20 emissions_1.20" vType="car2" speedFactor="1.00" vaporized="">
        <emissions CO_abs="27224.180051" CO2_abs="1397317.726161" HC_abs="452.814787" PMx_abs="134.633651" NOx_abs="3091.538537" fuel_abs="557.092649" electricity_abs="0"/>
    </tripinfo>
    <tripinfo id="0.18" depart="77.00" departLane="gneE0_0" departPos="6.60" departSpeed="0.00" departDelay="55.40" arrival="398.00" arrivalLane="gneE0_0" arrivalPos="10000.00" arrivalSpeed="32.51" duration="321.00" routeLength="9993.40" waitSteps="0" timeLoss="17.66" rerouteNo="0" devices="tripinfo_0.18 emissions_0.18" vType="car2" speedFactor="1.00" vaporized="">
        <emissions CO_abs="27408.469811" CO2_abs="1411487.115303" HC_abs="456.993013" PMx_abs="136.198915" NOx_abs="3121.050633" fuel_abs="562.741781" electricity_abs="0"/>
    </tripinfo>
    <tripinfo id="0.19" depart="82.00" departLane="gneE0_0" departPos="6.60" departSpeed="0.00" departDelay="59.20" arrival="402.00" arrivalLane="gneE0_0" arrivalPos="10000.00" arrivalSpeed="32.76" duration="320.00" routeLength="9993.40" waitSteps="0" timeLoss="16.67" rerouteNo="0" devices="tripinfo_0.19 emissions_0.19" vType="car2" speedFactor="1.00" vaporized="">
        <emissions CO_abs="27415.099088" CO2_abs="1411656.095256" HC_abs="457.056388" PMx_abs="136.205060" NOx_abs="3121.667880" fuel_abs="562.809146" electricity_abs="0"/>
    </tripinfo>
    <tripinfo id="1.21" depart="82.00" departLane="-gneE0_0" departPos="6.60" departSpeed="0.00" departDelay="56.80" arrival="402.00" arrivalLane="-gneE0_0" arrivalPos="10000.00" arrivalSpeed="32.98" duration="320.00" routeLength="9993.40" waitSteps="0" timeLoss="16.04" rerouteNo="0" devices="tripinfo_1.21 emissions_1.21" vType="car2" speedFactor="1.00" vaporized="">
        <emissions CO_abs="26706.045130" CO2_abs="1376185.915033" HC_abs="444.780558" PMx_abs="131.742015" NOx_abs="3040.206280" fuel_abs="548.667684" electricity_abs="0"/>
    </tripinfo>
    <tripinfo id="1.22" depart="86.00" departLane="-gneE0_0" departPos="6.60" departSpeed="0.00" departDelay="59.60" arrival="405.00" arrivalLane="-gneE0_0" arrivalPos="10000.00" arrivalSpeed="32.79" duration="319.00" routeLength="9993.40" waitSteps="0" timeLoss="15.10" rerouteNo="0" devices="tripinfo_1.22 emissions_1.22" vType="car2" speedFactor="1.00" vaporized="">
        <emissions CO_abs="27274.095874" CO2_abs="1403385.716338" HC_abs="453.857404" PMx_abs="134.335559" NOx_abs="3101.346698" fuel_abs="559.511898" electricity_abs="0"/>
    </tripinfo>
    <tripinfo id="0.20" depart="86.00" departLane="gneE0_0" departPos="6.60" departSpeed="0.00" departDelay="62.00" arrival="406.00" arrivalLane="gneE0_0" arrivalPos="10000.00" arrivalSpeed="32.94" duration="320.00" routeLength="9993.40" waitSteps="0" timeLoss="16.11" rerouteNo="0" devices="tripinfo_0.20 emissions_0.20" vType="car2" speedFactor="1.00" vaporized="">
        <emissions CO_abs="27565.957637" CO2_abs="1419570.965963" HC_abs="460.275086" PMx_abs="136.448512" NOx_abs="3138.112051" fuel_abs="565.964675" electricity_abs="0"/>
    </tripinfo>
    <tripinfo id="1.23" depart="89.00" departLane="-gneE0_0" departPos="6.60" departSpeed="0.00" departDelay="61.40" arrival="408.00" arrivalLane="-gneE0_0" arrivalPos="10000.00" arrivalSpeed="32.28" duration="319.00" routeLength="9993.40" waitSteps="0" timeLoss="15.55" rerouteNo="0" devices="tripinfo_1.23 emissions_1.23" vType="car2" speedFactor="1.00" vaporized="">
        <emissions CO_abs="27846.137479" CO2_abs="1430415.564874" HC_abs="462.176476" PMx_abs="137.447054" NOx_abs="3163.121926" fuel_abs="570.288394" electricity_abs="0"/>
    </tripinfo>
    <tripinfo id="0.21" depart="90.00" departLane="gneE0_0" departPos="6.60" departSpeed="0.00" departDelay="64.80" arrival="410.00" arrivalLane="gneE0_0" arrivalPos="10000.00" arrivalSpeed="32.32" duration="320.00" routeLength="9993.40" waitSteps="0" timeLoss="16.57" rerouteNo="0" devices="tripinfo_0.21 emissions_0.21" vType="car2" speedFactor="1.00" vaporized="">
        <emissions CO_abs="27638.533663" CO2_abs="1422561.985874" HC_abs="459.746179" PMx_abs="136.758593" NOx_abs="3144.765830" fuel_abs="567.157239" electricity_abs="0"/>
    </tripinfo>
    <tripinfo id="1.24" depart="93.00" departLane="-gneE0_0" departPos="6.60" departSpeed="0.00" departDelay="64.20" arrival="412.00" arrivalLane="-gneE0_0" arrivalPos="10000.00" arrivalSpeed="32.81" duration="319.00" routeLength="9993.40" waitSteps="0" timeLoss="15.35" rerouteNo="0" devices="tripinfo_1.24 emissions_1.24" vType="car2" speedFactor="1.00" vaporized="">
        <emissions CO_abs="27252.800872" CO2_abs="1401104.147557" HC_abs="453.280957" PMx_abs="134.305438" NOx_abs="3097.132424" fuel_abs="558.602271" electricity_abs="0"/>
    </tripinfo>
    <tripinfo id="0.23" depart="98.00" departLane="gneE0_0" departPos="6.60" departSpeed="0.00" departDelay="70.40" arrival="418.00" arrivalLane="gneE0_0" arrivalPos="10000.00" arrivalSpeed="32.32" duration="320.00" routeLength="9993.40" waitSteps="0" timeLoss="16.11" rerouteNo="0" devices="tripinfo_0.23 emissions_0.23" vType="car2" speedFactor="1.00" vaporized="">
        <emissions CO_abs="27499.594544" CO2_abs="1417882.136515" HC_abs="458.409159" PMx_abs="136.081585" NOx_abs="3133.129012" fuel_abs="565.291407" electricity_abs="0"/>
    </tripinfo>
    <tripinfo id="1.27" depart="106.00" departLane="-gneE0_0" departPos="6.60" departSpeed="0.00" departDelay="73.60" arrival="427.00" arrivalLane="-gneE0_0" arrivalPos="10000.00" arrivalSpeed="32.59" duration="321.00" routeLength="9993.40" waitSteps="0" timeLoss="17.36" rerouteNo="0" devices="tripinfo_1.27 emissions_1.27" vType="car2" speedFactor="1.00" vaporized="">
        <emissions CO_abs="27022.714708" CO2_abs="1395379.580272" HC_abs="451.190703" PMx_abs="133.660862" NOx_abs="3081.746759" fuel_abs="556.319912" electricity_abs="0"/>
    </tripinfo>
    <tripinfo id="0.26" depart="110.00" departLane="gneE0_0" departPos="6.60" departSpeed="0.00" departDelay="78.80" arrival="428.00" arrivalLane="gneE0_0" arrivalPos="10000.00" arrivalSpeed="32.45" duration="318.00" routeLength="9993.40" waitSteps="0" timeLoss="14.85" rerouteNo="0" devices="tripinfo_0.26 emissions_0.26" vType="car2" speedFactor="1.00" vaporized="">
        <emissions CO_abs="27400.123445" CO2_abs="1405608.811735" HC_abs="456.953069" PMx_abs="135.937585" NOx_abs="3111.648115" fuel_abs="560.398128" electricity_abs="0"/>
    </tripinfo>
    <tripinfo id="0.25" depart="106.00" departLane="gneE0_0" departPos="6.60" departSpeed="0.00" departDelay="76.00" arrival="430.00" arrivalLane="gneE0_1" arrivalPos="10000.00" arrivalSpeed="32.45" duration="324.00" routeLength="9993.40" waitSteps="0" timeLoss="20.09" rerouteNo="0" devices="tripinfo_0.25 emissions_0.25" vType="car2" speedFactor="1.00" vaporized="">
        <emissions CO_abs="27292.660678" CO2_abs="1416277.145829" HC_abs="458.959482" PMx_abs="137.517831" NOx_abs="3130.723754" fuel_abs="564.651340" electricity_abs="0"/>
    </tripinfo>
    <tripinfo id="0.28" depart="119.00" departLane="gneE0_0" departPos="6.60" departSpeed="0.00" departDelay="85.40" arrival="439.00" arrivalLane="gneE0_0" arrivalPos="10000.00" arrivalSpeed="32.73" duration="320.00" routeLength="9993.40" waitSteps="0" timeLoss="16.54" rerouteNo="0" devices="tripinfo_0.28 emissions_0.28" vType="car2" speedFactor="1.00" vaporized="">
        <emissions CO_abs="27421.220757" CO2_abs="1414838.722937" HC_abs="456.276929" PMx_abs="135.514969" NOx_abs="3125.188779" fuel_abs="564.078087" electricity_abs="0"/>
    </tripinfo>
    <tripinfo id="1.30" depart="119.00" departLane="-gneE0_0" departPos="6.60" departSpeed="0.00" departDelay="83.00" arrival="441.00" arrivalLane="-gneE0_0" arrivalPos="10000.00" arrivalSpeed="32.49" duration="322.00" routeLength="9993.40" waitSteps="0" timeLoss="18.31" rerouteNo="0" devices="tripinfo_1.30 emissions_1.30" vType="car2" speedFactor="1.00" vaporized="">
        <emissions CO_abs="28063.505684" CO2_abs="1454590.620460" HC_abs="468.386830" PMx_abs="139.280683" NOx_abs="3210.586445" fuel_abs="579.926619" electricity_abs="0"/>
    </tripinfo>
    <tripinfo id="0.29" depart="123.00" departLane="gneE0_0" departPos="6.60" departSpeed="0.00" departDelay="88.20" arrival="443.00" arrivalLane="gneE0_1" arrivalPos="10000.00" arrivalSpeed="32.40" duration="320.00" routeLength="9993.40" waitSteps="0" timeLoss="16.71" rerouteNo="0" devices="tripinfo_0.29 emissions_0.29" vType="car2" speedFactor="1.00" vaporized="">